ITEM: TIMESTEP
0          0
ITEM: NUMBER OF ATOMS
480
ITEM: BOX BOUNDS
0 10
0 16
0 3
ITEM: ATOMS id type x y z
1 1 0 0 0 
2 1 1 0 0 
3 1 2 0 0 
4 1 3 0 0 
5 1 4 0 0 
6 1 5 0 0 
7 1 6 0 0 
8 1 7 0 0 
9 1 8 0 0 
10 1 9 0 0 
11 1 0 1 0 
12 1 1 1 0 
13 1 2 1 0 
14 1 3 1 0 
15 1 4 1 0 
16 1 5 1 0 
17 1 6 1 0 
18 1 7 1 0 
19 1 8 1 0 
20 1 9 1 0 
21 1 0 2 0 
22 1 1 2 0 
23 1 2 2 0 
24 1 3 2 0 
25 1 4 2 0 
26 1 5 2 0 
27 1 6 2 0 
28 1 7 2 0 
29 1 8 2 0 
30 1 9 2 0 
31 1 0 3 0 
32 1 1 3 0 
33 1 2 3 0 
34 1 3 3 0 
35 1 4 3 0 
36 1 5 3 0 
37 1 6 3 0 
38 1 7 3 0 
39 1 8 3 0 
40 1 9 3 0 
41 1 0 4 0 
42 1 1 4 0 
43 1 2 4 0 
44 1 3 4 0 
45 1 4 4 0 
46 1 5 4 0 
47 1 6 4 0 
48 1 7 4 0 
49 1 8 4 0 
50 1 9 4 0 
51 1 0 5 0 
52 1 1 5 0 
53 1 2 5 0 
54 1 3 5 0 
55 1 4 5 0 
56 1 5 5 0 
57 1 6 5 0 
58 1 7 5 0 
59 1 8 5 0 
60 1 9 5 0 
61 1 0 6 0 
62 1 1 6 0 
63 1 2 6 0 
64 1 3 6 0 
65 1 4 6 0 
66 1 5 6 0 
67 1 6 6 0 
68 1 7 6 0 
69 1 8 6 0 
70 1 9 6 0 
71 1 0 7 0 
72 1 1 7 0 
73 1 2 7 0 
74 1 3 7 0 
75 1 4 7 0 
76 1 5 7 0 
77 1 6 7 0 
78 1 7 7 0 
79 1 8 7 0 
80 1 9 7 0 
81 1 0 8 0 
82 1 1 8 0 
83 1 2 8 0 
84 1 3 8 0 
85 1 4 8 0 
86 1 5 8 0 
87 1 6 8 0 
88 1 7 8 0 
89 1 8 8 0 
90 1 9 8 0 
91 1 0 9 0 
92 1 1 9 0 
93 1 2 9 0 
94 1 3 9 0 
95 1 4 9 0 
96 1 5 9 0 
97 1 6 9 0 
98 1 7 9 0 
99 1 8 9 0 
100 1 9 9 0 
101 2 0 10 0 
102 2 1 10 0 
103 2 2 10 0 
104 2 3 10 0 
105 2 4 10 0 
106 2 5 10 0 
107 2 6 10 0 
108 2 7 10 0 
109 2 8 10 0 
110 3 9 10 0 
111 2 0 11 0 
112 2 1 11 0 
113 2 2 11 0 
114 2 3 11 0 
115 2 4 11 0 
116 2 5 11 0 
117 2 6 11 0 
118 2 7 11 0 
119 2 8 11 0 
120 3 9 11 0 
121 0 0 12 0 
122 0 1 12 0 
123 0 2 12 0 
124 0 3 12 0 
125 0 4 12 0 
126 0 5 12 0 
127 0 6 12 0 
128 0 7 12 0 
129 0 8 12 0 
130 0 9 12 0 
131 0 0 13 0 
132 0 1 13 0 
133 0 2 13 0 
134 0 3 13 0 
135 0 4 13 0 
136 0 5 13 0 
137 0 6 13 0 
138 0 7 13 0 
139 0 8 13 0 
140 0 9 13 0 
141 0 0 14 0 
142 0 1 14 0 
143 0 2 14 0 
144 0 3 14 0 
145 0 4 14 0 
146 0 5 14 0 
147 0 6 14 0 
148 0 7 14 0 
149 0 8 14 0 
150 0 9 14 0 
151 4 0 15 0 
152 4 1 15 0 
153 4 2 15 0 
154 4 3 15 0 
155 4 4 15 0 
156 4 5 15 0 
157 4 6 15 0 
158 4 7 15 0 
159 4 8 15 0 
160 4 9 15 0 
161 1 0 0 1 
162 1 1 0 1 
163 1 2 0 1 
164 1 3 0 1 
165 1 4 0 1 
166 1 5 0 1 
167 1 6 0 1 
168 1 7 0 1 
169 1 8 0 1 
170 1 9 0 1 
171 1 0 1 1 
172 1 1 1 1 
173 1 2 1 1 
174 1 3 1 1 
175 1 4 1 1 
176 1 5 1 1 
177 1 6 1 1 
178 1 7 1 1 
179 1 8 1 1 
180 1 9 1 1 
181 1 0 2 1 
182 1 1 2 1 
183 1 2 2 1 
184 1 3 2 1 
185 1 4 2 1 
186 1 5 2 1 
187 1 6 2 1 
188 1 7 2 1 
189 1 8 2 1 
190 1 9 2 1 
191 1 0 3 1 
192 1 1 3 1 
193 1 2 3 1 
194 1 3 3 1 
195 1 4 3 1 
196 1 5 3 1 
197 1 6 3 1 
198 1 7 3 1 
199 1 8 3 1 
200 1 9 3 1 
201 1 0 4 1 
202 1 1 4 1 
203 1 2 4 1 
204 1 3 4 1 
205 1 4 4 1 
206 1 5 4 1 
207 1 6 4 1 
208 1 7 4 1 
209 1 8 4 1 
210 1 9 4 1 
211 1 0 5 1 
212 1 1 5 1 
213 1 2 5 1 
214 1 3 5 1 
215 1 4 5 1 
216 1 5 5 1 
217 1 6 5 1 
218 1 7 5 1 
219 1 8 5 1 
220 1 9 5 1 
221 1 0 6 1 
222 1 1 6 1 
223 1 2 6 1 
224 1 3 6 1 
225 1 4 6 1 
226 1 5 6 1 
227 1 6 6 1 
228 1 7 6 1 
229 1 8 6 1 
230 1 9 6 1 
231 1 0 7 1 
232 1 1 7 1 
233 1 2 7 1 
234 1 3 7 1 
235 1 4 7 1 
236 1 5 7 1 
237 1 6 7 1 
238 1 7 7 1 
239 1 8 7 1 
240 1 9 7 1 
241 1 0 8 1 
242 1 1 8 1 
243 1 2 8 1 
244 1 3 8 1 
245 1 4 8 1 
246 1 5 8 1 
247 1 6 8 1 
248 1 7 8 1 
249 1 8 8 1 
250 1 9 8 1 
251 1 0 9 1 
252 1 1 9 1 
253 1 2 9 1 
254 1 3 9 1 
255 1 4 9 1 
256 1 5 9 1 
257 1 6 9 1 
258 1 7 9 1 
259 1 8 9 1 
260 1 9 9 1 
261 2 0 10 1 
262 2 1 10 1 
263 2 2 10 1 
264 2 3 10 1 
265 2 4 10 1 
266 2 5 10 1 
267 2 6 10 1 
268 2 7 10 1 
269 2 8 10 1 
270 3 9 10 1 
271 2 0 11 1 
272 2 1 11 1 
273 2 2 11 1 
274 2 3 11 1 
275 2 4 11 1 
276 2 5 11 1 
277 2 6 11 1 
278 2 7 11 1 
279 2 8 11 1 
280 3 9 11 1 
281 0 0 12 1 
282 0 1 12 1 
283 0 2 12 1 
284 0 3 12 1 
285 0 4 12 1 
286 0 5 12 1 
287 0 6 12 1 
288 0 7 12 1 
289 0 8 12 1 
290 0 9 12 1 
291 0 0 13 1 
292 0 1 13 1 
293 0 2 13 1 
294 0 3 13 1 
295 0 4 13 1 
296 0 5 13 1 
297 0 6 13 1 
298 0 7 13 1 
299 0 8 13 1 
300 0 9 13 1 
301 0 0 14 1 
302 0 1 14 1 
303 0 2 14 1 
304 0 3 14 1 
305 0 4 14 1 
306 0 5 14 1 
307 0 6 14 1 
308 0 7 14 1 
309 0 8 14 1 
310 0 9 14 1 
311 4 0 15 1 
312 4 1 15 1 
313 4 2 15 1 
314 4 3 15 1 
315 4 4 15 1 
316 4 5 15 1 
317 4 6 15 1 
318 4 7 15 1 
319 4 8 15 1 
320 4 9 15 1 
321 1 0 0 2 
322 1 1 0 2 
323 1 2 0 2 
324 1 3 0 2 
325 1 4 0 2 
326 1 5 0 2 
327 1 6 0 2 
328 1 7 0 2 
329 1 8 0 2 
330 1 9 0 2 
331 1 0 1 2 
332 1 1 1 2 
333 1 2 1 2 
334 1 3 1 2 
335 1 4 1 2 
336 1 5 1 2 
337 1 6 1 2 
338 1 7 1 2 
339 1 8 1 2 
340 1 9 1 2 
341 1 0 2 2 
342 1 1 2 2 
343 1 2 2 2 
344 1 3 2 2 
345 1 4 2 2 
346 1 5 2 2 
347 1 6 2 2 
348 1 7 2 2 
349 1 8 2 2 
350 1 9 2 2 
351 1 0 3 2 
352 1 1 3 2 
353 1 2 3 2 
354 1 3 3 2 
355 1 4 3 2 
356 1 5 3 2 
357 1 6 3 2 
358 1 7 3 2 
359 1 8 3 2 
360 1 9 3 2 
361 1 0 4 2 
362 1 1 4 2 
363 1 2 4 2 
364 1 3 4 2 
365 1 4 4 2 
366 1 5 4 2 
367 1 6 4 2 
368 1 7 4 2 
369 1 8 4 2 
370 1 9 4 2 
371 1 0 5 2 
372 1 1 5 2 
373 1 2 5 2 
374 1 3 5 2 
375 1 4 5 2 
376 1 5 5 2 
377 1 6 5 2 
378 1 7 5 2 
379 1 8 5 2 
380 1 9 5 2 
381 1 0 6 2 
382 1 1 6 2 
383 1 2 6 2 
384 1 3 6 2 
385 1 4 6 2 
386 1 5 6 2 
387 1 6 6 2 
388 1 7 6 2 
389 1 8 6 2 
390 1 9 6 2 
391 1 0 7 2 
392 1 1 7 2 
393 1 2 7 2 
394 1 3 7 2 
395 1 4 7 2 
396 1 5 7 2 
397 1 6 7 2 
398 1 7 7 2 
399 1 8 7 2 
400 1 9 7 2 
401 1 0 8 2 
402 1 1 8 2 
403 1 2 8 2 
404 1 3 8 2 
405 1 4 8 2 
406 1 5 8 2 
407 1 6 8 2 
408 1 7 8 2 
409 1 8 8 2 
410 1 9 8 2 
411 1 0 9 2 
412 1 1 9 2 
413 1 2 9 2 
414 1 3 9 2 
415 1 4 9 2 
416 1 5 9 2 
417 1 6 9 2 
418 1 7 9 2 
419 1 8 9 2 
420 1 9 9 2 
421 2 0 10 2 
422 2 1 10 2 
423 2 2 10 2 
424 2 3 10 2 
425 2 4 10 2 
426 2 5 10 2 
427 2 6 10 2 
428 2 7 10 2 
429 2 8 10 2 
430 3 9 10 2 
431 2 0 11 2 
432 2 1 11 2 
433 2 2 11 2 
434 2 3 11 2 
435 2 4 11 2 
436 2 5 11 2 
437 2 6 11 2 
438 2 7 11 2 
439 2 8 11 2 
440 3 9 11 2 
441 0 0 12 2 
442 0 1 12 2 
443 0 2 12 2 
444 0 3 12 2 
445 0 4 12 2 
446 0 5 12 2 
447 0 6 12 2 
448 0 7 12 2 
449 0 8 12 2 
450 0 9 12 2 
451 0 0 13 2 
452 0 1 13 2 
453 0 2 13 2 
454 0 3 13 2 
455 0 4 13 2 
456 0 5 13 2 
457 0 6 13 2 
458 0 7 13 2 
459 0 8 13 2 
460 0 9 13 2 
461 0 0 14 2 
462 0 1 14 2 
463 0 2 14 2 
464 0 3 14 2 
465 0 4 14 2 
466 0 5 14 2 
467 0 6 14 2 
468 0 7 14 2 
469 0 8 14 2 
470 0 9 14 2 
471 4 0 15 2 
472 4 1 15 2 
473 4 2 15 2 
474 4 3 15 2 
475 4 4 15 2 
476 4 5 15 2 
477 4 6 15 2 
478 4 7 15 2 
479 4 8 15 2 
480 4 9 15 2 
ITEM: TIMESTEP
1    1.00026
ITEM: NUMBER OF ATOMS
480
ITEM: BOX BOUNDS
0 10
0 16
0 3
ITEM: ATOMS id type x y z
1 1 0 0 0 
2 1 1 0 0 
3 1 2 0 0 
4 1 3 0 0 
5 1 4 0 0 
6 1 5 0 0 
7 1 6 0 0 
8 1 7 0 0 
9 1 8 0 0 
10 1 9 0 0 
11 1 0 1 0 
12 1 1 1 0 
13 1 2 1 0 
14 1 3 1 0 
15 1 4 1 0 
16 1 5 1 0 
17 1 6 1 0 
18 1 7 1 0 
19 1 8 1 0 
20 1 9 1 0 
21 1 0 2 0 
22 1 1 2 0 
23 1 2 2 0 
24 1 3 2 0 
25 1 4 2 0 
26 1 5 2 0 
27 1 6 2 0 
28 1 7 2 0 
29 1 8 2 0 
30 1 9 2 0 
31 1 0 3 0 
32 1 1 3 0 
33 1 2 3 0 
34 1 3 3 0 
35 1 4 3 0 
36 1 5 3 0 
37 1 6 3 0 
38 1 7 3 0 
39 1 8 3 0 
40 1 9 3 0 
41 1 0 4 0 
42 1 1 4 0 
43 1 2 4 0 
44 1 3 4 0 
45 1 4 4 0 
46 1 5 4 0 
47 1 6 4 0 
48 1 7 4 0 
49 1 8 4 0 
50 1 9 4 0 
51 1 0 5 0 
52 1 1 5 0 
53 1 2 5 0 
54 1 3 5 0 
55 1 4 5 0 
56 1 5 5 0 
57 1 6 5 0 
58 1 7 5 0 
59 1 8 5 0 
60 1 9 5 0 
61 1 0 6 0 
62 1 1 6 0 
63 1 2 6 0 
64 1 3 6 0 
65 1 4 6 0 
66 1 5 6 0 
67 1 6 6 0 
68 1 7 6 0 
69 1 8 6 0 
70 1 9 6 0 
71 1 0 7 0 
72 1 1 7 0 
73 1 2 7 0 
74 1 3 7 0 
75 1 4 7 0 
76 1 5 7 0 
77 1 6 7 0 
78 1 7 7 0 
79 1 8 7 0 
80 1 9 7 0 
81 1 0 8 0 
82 1 1 8 0 
83 1 2 8 0 
84 1 3 8 0 
85 1 4 8 0 
86 1 5 8 0 
87 1 6 8 0 
88 1 7 8 0 
89 1 8 8 0 
90 1 9 8 0 
91 1 0 9 0 
92 1 1 9 0 
93 1 2 9 0 
94 1 3 9 0 
95 1 4 9 0 
96 1 5 9 0 
97 1 6 9 0 
98 1 7 9 0 
99 1 8 9 0 
100 1 9 9 0 
101 2 0 10 0 
102 2 1 10 0 
103 2 2 10 0 
104 2 3 10 0 
105 2 4 10 0 
106 2 5 10 0 
107 2 6 10 0 
108 2 7 10 0 
109 3 8 10 0 
110 3 9 10 0 
111 2 0 11 0 
112 2 1 11 0 
113 2 2 11 0 
114 2 3 11 0 
115 2 4 11 0 
116 2 5 11 0 
117 2 6 11 0 
118 2 7 11 0 
119 3 8 11 0 
120 3 9 11 0 
121 0 0 12 0 
122 0 1 12 0 
123 0 2 12 0 
124 0 3 12 0 
125 0 4 12 0 
126 0 5 12 0 
127 0 6 12 0 
128 5 7 12 0 
129 0 8 12 0 
130 0 9 12 0 
131 0 0 13 0 
132 0 1 13 0 
133 0 2 13 0 
134 0 3 13 0 
135 0 4 13 0 
136 0 5 13 0 
137 0 6 13 0 
138 0 7 13 0 
139 0 8 13 0 
140 0 9 13 0 
141 0 0 14 0 
142 0 1 14 0 
143 0 2 14 0 
144 0 3 14 0 
145 0 4 14 0 
146 0 5 14 0 
147 0 6 14 0 
148 0 7 14 0 
149 0 8 14 0 
150 0 9 14 0 
151 4 0 15 0 
152 4 1 15 0 
153 4 2 15 0 
154 4 3 15 0 
155 4 4 15 0 
156 4 5 15 0 
157 4 6 15 0 
158 4 7 15 0 
159 4 8 15 0 
160 4 9 15 0 
161 1 0 0 1 
162 1 1 0 1 
163 1 2 0 1 
164 1 3 0 1 
165 1 4 0 1 
166 1 5 0 1 
167 1 6 0 1 
168 1 7 0 1 
169 1 8 0 1 
170 1 9 0 1 
171 1 0 1 1 
172 1 1 1 1 
173 1 2 1 1 
174 1 3 1 1 
175 1 4 1 1 
176 1 5 1 1 
177 1 6 1 1 
178 1 7 1 1 
179 1 8 1 1 
180 1 9 1 1 
181 1 0 2 1 
182 1 1 2 1 
183 1 2 2 1 
184 1 3 2 1 
185 1 4 2 1 
186 1 5 2 1 
187 1 6 2 1 
188 1 7 2 1 
189 1 8 2 1 
190 1 9 2 1 
191 1 0 3 1 
192 1 1 3 1 
193 1 2 3 1 
194 1 3 3 1 
195 1 4 3 1 
196 1 5 3 1 
197 1 6 3 1 
198 1 7 3 1 
199 1 8 3 1 
200 1 9 3 1 
201 1 0 4 1 
202 1 1 4 1 
203 1 2 4 1 
204 1 3 4 1 
205 1 4 4 1 
206 1 5 4 1 
207 1 6 4 1 
208 1 7 4 1 
209 1 8 4 1 
210 1 9 4 1 
211 1 0 5 1 
212 1 1 5 1 
213 1 2 5 1 
214 1 3 5 1 
215 1 4 5 1 
216 1 5 5 1 
217 1 6 5 1 
218 1 7 5 1 
219 1 8 5 1 
220 1 9 5 1 
221 1 0 6 1 
222 1 1 6 1 
223 1 2 6 1 
224 1 3 6 1 
225 1 4 6 1 
226 1 5 6 1 
227 1 6 6 1 
228 1 7 6 1 
229 1 8 6 1 
230 1 9 6 1 
231 1 0 7 1 
232 1 1 7 1 
233 1 2 7 1 
234 1 3 7 1 
235 1 4 7 1 
236 1 5 7 1 
237 1 6 7 1 
238 1 7 7 1 
239 1 8 7 1 
240 1 9 7 1 
241 1 0 8 1 
242 1 1 8 1 
243 1 2 8 1 
244 1 3 8 1 
245 1 4 8 1 
246 1 5 8 1 
247 1 6 8 1 
248 1 7 8 1 
249 1 8 8 1 
250 1 9 8 1 
251 1 0 9 1 
252 1 1 9 1 
253 1 2 9 1 
254 1 3 9 1 
255 1 4 9 1 
256 1 5 9 1 
257 1 6 9 1 
258 1 7 9 1 
259 1 8 9 1 
260 1 9 9 1 
261 2 0 10 1 
262 2 1 10 1 
263 2 2 10 1 
264 2 3 10 1 
265 2 4 10 1 
266 2 5 10 1 
267 2 6 10 1 
268 2 7 10 1 
269 3 8 10 1 
270 3 9 10 1 
271 2 0 11 1 
272 2 1 11 1 
273 2 2 11 1 
274 2 3 11 1 
275 2 4 11 1 
276 2 5 11 1 
277 2 6 11 1 
278 2 7 11 1 
279 0 8 11 1 
280 0 9 11 1 
281 0 0 12 1 
282 0 1 12 1 
283 0 2 12 1 
284 0 3 12 1 
285 0 4 12 1 
286 0 5 12 1 
287 0 6 12 1 
288 0 7 12 1 
289 0 8 12 1 
290 0 9 12 1 
291 0 0 13 1 
292 0 1 13 1 
293 0 2 13 1 
294 0 3 13 1 
295 0 4 13 1 
296 0 5 13 1 
297 0 6 13 1 
298 0 7 13 1 
299 0 8 13 1 
300 0 9 13 1 
301 0 0 14 1 
302 0 1 14 1 
303 0 2 14 1 
304 0 3 14 1 
305 0 4 14 1 
306 0 5 14 1 
307 0 6 14 1 
308 0 7 14 1 
309 0 8 14 1 
310 0 9 14 1 
311 4 0 15 1 
312 4 1 15 1 
313 4 2 15 1 
314 4 3 15 1 
315 4 4 15 1 
316 4 5 15 1 
317 4 6 15 1 
318 4 7 15 1 
319 4 8 15 1 
320 4 9 15 1 
321 1 0 0 2 
322 1 1 0 2 
323 1 2 0 2 
324 1 3 0 2 
325 1 4 0 2 
326 1 5 0 2 
327 1 6 0 2 
328 1 7 0 2 
329 1 8 0 2 
330 1 9 0 2 
331 1 0 1 2 
332 1 1 1 2 
333 1 2 1 2 
334 1 3 1 2 
335 1 4 1 2 
336 1 5 1 2 
337 1 6 1 2 
338 1 7 1 2 
339 1 8 1 2 
340 1 9 1 2 
341 1 0 2 2 
342 1 1 2 2 
343 1 2 2 2 
344 1 3 2 2 
345 1 4 2 2 
346 1 5 2 2 
347 1 6 2 2 
348 1 7 2 2 
349 1 8 2 2 
350 1 9 2 2 
351 1 0 3 2 
352 1 1 3 2 
353 1 2 3 2 
354 1 3 3 2 
355 1 4 3 2 
356 1 5 3 2 
357 1 6 3 2 
358 1 7 3 2 
359 1 8 3 2 
360 1 9 3 2 
361 1 0 4 2 
362 1 1 4 2 
363 1 2 4 2 
364 1 3 4 2 
365 1 4 4 2 
366 1 5 4 2 
367 1 6 4 2 
368 1 7 4 2 
369 1 8 4 2 
370 1 9 4 2 
371 1 0 5 2 
372 1 1 5 2 
373 1 2 5 2 
374 1 3 5 2 
375 1 4 5 2 
376 1 5 5 2 
377 1 6 5 2 
378 1 7 5 2 
379 1 8 5 2 
380 1 9 5 2 
381 1 0 6 2 
382 1 1 6 2 
383 1 2 6 2 
384 1 3 6 2 
385 1 4 6 2 
386 1 5 6 2 
387 1 6 6 2 
388 1 7 6 2 
389 1 8 6 2 
390 1 9 6 2 
391 1 0 7 2 
392 1 1 7 2 
393 1 2 7 2 
394 1 3 7 2 
395 1 4 7 2 
396 1 5 7 2 
397 1 6 7 2 
398 1 7 7 2 
399 1 8 7 2 
400 1 9 7 2 
401 1 0 8 2 
402 1 1 8 2 
403 1 2 8 2 
404 1 3 8 2 
405 1 4 8 2 
406 1 5 8 2 
407 1 6 8 2 
408 1 7 8 2 
409 1 8 8 2 
410 1 9 8 2 
411 1 0 9 2 
412 1 1 9 2 
413 1 2 9 2 
414 1 3 9 2 
415 1 4 9 2 
416 1 5 9 2 
417 1 6 9 2 
418 1 7 9 2 
419 1 8 9 2 
420 1 9 9 2 
421 2 0 10 2 
422 2 1 10 2 
423 2 2 10 2 
424 2 3 10 2 
425 2 4 10 2 
426 2 5 10 2 
427 2 6 10 2 
428 2 7 10 2 
429 3 8 10 2 
430 3 9 10 2 
431 2 0 11 2 
432 2 1 11 2 
433 2 2 11 2 
434 2 3 11 2 
435 2 4 11 2 
436 2 5 11 2 
437 2 6 11 2 
438 2 7 11 2 
439 3 8 11 2 
440 3 9 11 2 
441 0 0 12 2 
442 0 1 12 2 
443 0 2 12 2 
444 0 3 12 2 
445 0 4 12 2 
446 0 5 12 2 
447 0 6 12 2 
448 0 7 12 2 
449 0 8 12 2 
450 0 9 12 2 
451 0 0 13 2 
452 0 1 13 2 
453 0 2 13 2 
454 0 3 13 2 
455 0 4 13 2 
456 0 5 13 2 
457 0 6 13 2 
458 0 7 13 2 
459 0 8 13 2 
460 0 9 13 2 
461 0 0 14 2 
462 0 1 14 2 
463 0 2 14 2 
464 0 3 14 2 
465 0 4 14 2 
466 0 5 14 2 
467 0 6 14 2 
468 0 7 14 2 
469 0 8 14 2 
470 0 9 14 2 
471 4 0 15 2 
472 4 1 15 2 
473 4 2 15 2 
474 4 3 15 2 
475 4 4 15 2 
476 4 5 15 2 
477 4 6 15 2 
478 4 7 15 2 
479 4 8 15 2 
480 4 9 15 2 
ITEM: TIMESTEP
2    2.05384
ITEM: NUMBER OF ATOMS
480
ITEM: BOX BOUNDS
0 10
0 16
0 3
ITEM: ATOMS id type x y z
1 1 0 0 0 
2 1 1 0 0 
3 1 2 0 0 
4 1 3 0 0 
5 1 4 0 0 
6 1 5 0 0 
7 1 6 0 0 
8 1 7 0 0 
9 1 8 0 0 
10 1 9 0 0 
11 1 0 1 0 
12 1 1 1 0 
13 1 2 1 0 
14 1 3 1 0 
15 1 4 1 0 
16 1 5 1 0 
17 1 6 1 0 
18 1 7 1 0 
19 1 8 1 0 
20 1 9 1 0 
21 1 0 2 0 
22 1 1 2 0 
23 1 2 2 0 
24 1 3 2 0 
25 1 4 2 0 
26 1 5 2 0 
27 1 6 2 0 
28 1 7 2 0 
29 1 8 2 0 
30 1 9 2 0 
31 1 0 3 0 
32 1 1 3 0 
33 1 2 3 0 
34 1 3 3 0 
35 1 4 3 0 
36 1 5 3 0 
37 1 6 3 0 
38 1 7 3 0 
39 1 8 3 0 
40 1 9 3 0 
41 1 0 4 0 
42 1 1 4 0 
43 1 2 4 0 
44 1 3 4 0 
45 1 4 4 0 
46 1 5 4 0 
47 1 6 4 0 
48 1 7 4 0 
49 1 8 4 0 
50 1 9 4 0 
51 1 0 5 0 
52 1 1 5 0 
53 1 2 5 0 
54 1 3 5 0 
55 1 4 5 0 
56 1 5 5 0 
57 1 6 5 0 
58 1 7 5 0 
59 1 8 5 0 
60 1 9 5 0 
61 1 0 6 0 
62 1 1 6 0 
63 1 2 6 0 
64 1 3 6 0 
65 1 4 6 0 
66 1 5 6 0 
67 1 6 6 0 
68 1 7 6 0 
69 1 8 6 0 
70 1 9 6 0 
71 1 0 7 0 
72 1 1 7 0 
73 1 2 7 0 
74 1 3 7 0 
75 1 4 7 0 
76 1 5 7 0 
77 1 6 7 0 
78 1 7 7 0 
79 1 8 7 0 
80 1 9 7 0 
81 1 0 8 0 
82 1 1 8 0 
83 1 2 8 0 
84 1 3 8 0 
85 1 4 8 0 
86 1 5 8 0 
87 1 6 8 0 
88 1 7 8 0 
89 1 8 8 0 
90 1 9 8 0 
91 1 0 9 0 
92 1 1 9 0 
93 1 2 9 0 
94 1 3 9 0 
95 1 4 9 0 
96 1 5 9 0 
97 1 6 9 0 
98 1 7 9 0 
99 1 8 9 0 
100 1 9 9 0 
101 2 0 10 0 
102 2 1 10 0 
103 2 2 10 0 
104 2 3 10 0 
105 2 4 10 0 
106 2 5 10 0 
107 2 6 10 0 
108 3 7 10 0 
109 3 8 10 0 
110 3 9 10 0 
111 2 0 11 0 
112 2 1 11 0 
113 2 2 11 0 
114 2 3 11 0 
115 2 4 11 0 
116 2 5 11 0 
117 2 6 11 0 
118 3 7 11 0 
119 3 8 11 0 
120 3 9 11 0 
121 0 0 12 0 
122 0 1 12 0 
123 0 2 12 0 
124 0 3 12 0 
125 0 4 12 0 
126 0 5 12 0 
127 0 6 12 0 
128 0 7 12 0 
129 0 8 12 0 
130 0 9 12 0 
131 0 0 13 0 
132 0 1 13 0 
133 0 2 13 0 
134 0 3 13 0 
135 0 4 13 0 
136 0 5 13 0 
137 0 6 13 0 
138 0 7 13 0 
139 0 8 13 0 
140 0 9 13 0 
141 0 0 14 0 
142 0 1 14 0 
143 0 2 14 0 
144 0 3 14 0 
145 0 4 14 0 
146 0 5 14 0 
147 0 6 14 0 
148 0 7 14 0 
149 0 8 14 0 
150 0 9 14 0 
151 4 0 15 0 
152 4 1 15 0 
153 4 2 15 0 
154 4 3 15 0 
155 4 4 15 0 
156 4 5 15 0 
157 4 6 15 0 
158 4 7 15 0 
159 4 8 15 0 
160 4 9 15 0 
161 1 0 0 1 
162 1 1 0 1 
163 1 2 0 1 
164 1 3 0 1 
165 1 4 0 1 
166 1 5 0 1 
167 1 6 0 1 
168 1 7 0 1 
169 1 8 0 1 
170 1 9 0 1 
171 1 0 1 1 
172 1 1 1 1 
173 1 2 1 1 
174 1 3 1 1 
175 1 4 1 1 
176 1 5 1 1 
177 1 6 1 1 
178 1 7 1 1 
179 1 8 1 1 
180 1 9 1 1 
181 1 0 2 1 
182 1 1 2 1 
183 1 2 2 1 
184 1 3 2 1 
185 1 4 2 1 
186 1 5 2 1 
187 1 6 2 1 
188 1 7 2 1 
189 1 8 2 1 
190 1 9 2 1 
191 1 0 3 1 
192 1 1 3 1 
193 1 2 3 1 
194 1 3 3 1 
195 1 4 3 1 
196 1 5 3 1 
197 1 6 3 1 
198 1 7 3 1 
199 1 8 3 1 
200 1 9 3 1 
201 1 0 4 1 
202 1 1 4 1 
203 1 2 4 1 
204 1 3 4 1 
205 1 4 4 1 
206 1 5 4 1 
207 1 6 4 1 
208 1 7 4 1 
209 1 8 4 1 
210 1 9 4 1 
211 1 0 5 1 
212 1 1 5 1 
213 1 2 5 1 
214 1 3 5 1 
215 1 4 5 1 
216 1 5 5 1 
217 1 6 5 1 
218 1 7 5 1 
219 1 8 5 1 
220 1 9 5 1 
221 1 0 6 1 
222 1 1 6 1 
223 1 2 6 1 
224 1 3 6 1 
225 1 4 6 1 
226 1 5 6 1 
227 1 6 6 1 
228 1 7 6 1 
229 1 8 6 1 
230 1 9 6 1 
231 1 0 7 1 
232 1 1 7 1 
233 1 2 7 1 
234 1 3 7 1 
235 1 4 7 1 
236 1 5 7 1 
237 1 6 7 1 
238 1 7 7 1 
239 1 8 7 1 
240 1 9 7 1 
241 1 0 8 1 
242 1 1 8 1 
243 1 2 8 1 
244 1 3 8 1 
245 1 4 8 1 
246 1 5 8 1 
247 1 6 8 1 
248 1 7 8 1 
249 1 8 8 1 
250 1 9 8 1 
251 1 0 9 1 
252 1 1 9 1 
253 1 2 9 1 
254 1 3 9 1 
255 1 4 9 1 
256 1 5 9 1 
257 1 6 9 1 
258 1 7 9 1 
259 1 8 9 1 
260 1 9 9 1 
261 2 0 10 1 
262 2 1 10 1 
263 2 2 10 1 
264 2 3 10 1 
265 2 4 10 1 
266 2 5 10 1 
267 2 6 10 1 
268 3 7 10 1 
269 3 8 10 1 
270 3 9 10 1 
271 2 0 11 1 
272 2 1 11 1 
273 2 2 11 1 
274 2 3 11 1 
275 2 4 11 1 
276 2 5 11 1 
277 2 6 11 1 
278 5 7 11 1 
279 0 8 11 1 
280 0 9 11 1 
281 0 0 12 1 
282 0 1 12 1 
283 2 2 12 1 
284 0 3 12 1 
285 0 4 12 1 
286 0 5 12 1 
287 0 6 12 1 
288 0 7 12 1 
289 0 8 12 1 
290 0 9 12 1 
291 0 0 13 1 
292 0 1 13 1 
293 0 2 13 1 
294 0 3 13 1 
295 0 4 13 1 
296 0 5 13 1 
297 0 6 13 1 
298 0 7 13 1 
299 0 8 13 1 
300 0 9 13 1 
301 0 0 14 1 
302 0 1 14 1 
303 0 2 14 1 
304 0 3 14 1 
305 0 4 14 1 
306 0 5 14 1 
307 0 6 14 1 
308 0 7 14 1 
309 0 8 14 1 
310 0 9 14 1 
311 4 0 15 1 
312 4 1 15 1 
313 4 2 15 1 
314 4 3 15 1 
315 4 4 15 1 
316 4 5 15 1 
317 4 6 15 1 
318 4 7 15 1 
319 4 8 15 1 
320 4 9 15 1 
321 1 0 0 2 
322 1 1 0 2 
323 1 2 0 2 
324 1 3 0 2 
325 1 4 0 2 
326 1 5 0 2 
327 1 6 0 2 
328 1 7 0 2 
329 1 8 0 2 
330 1 9 0 2 
331 1 0 1 2 
332 1 1 1 2 
333 1 2 1 2 
334 1 3 1 2 
335 1 4 1 2 
336 1 5 1 2 
337 1 6 1 2 
338 1 7 1 2 
339 1 8 1 2 
340 1 9 1 2 
341 1 0 2 2 
342 1 1 2 2 
343 1 2 2 2 
344 1 3 2 2 
345 1 4 2 2 
346 1 5 2 2 
347 1 6 2 2 
348 1 7 2 2 
349 1 8 2 2 
350 1 9 2 2 
351 1 0 3 2 
352 1 1 3 2 
353 1 2 3 2 
354 1 3 3 2 
355 1 4 3 2 
356 1 5 3 2 
357 1 6 3 2 
358 1 7 3 2 
359 1 8 3 2 
360 1 9 3 2 
361 1 0 4 2 
362 1 1 4 2 
363 1 2 4 2 
364 1 3 4 2 
365 1 4 4 2 
366 1 5 4 2 
367 1 6 4 2 
368 1 7 4 2 
369 1 8 4 2 
370 1 9 4 2 
371 1 0 5 2 
372 1 1 5 2 
373 1 2 5 2 
374 1 3 5 2 
375 1 4 5 2 
376 1 5 5 2 
377 1 6 5 2 
378 1 7 5 2 
379 1 8 5 2 
380 1 9 5 2 
381 1 0 6 2 
382 1 1 6 2 
383 1 2 6 2 
384 1 3 6 2 
385 1 4 6 2 
386 1 5 6 2 
387 1 6 6 2 
388 1 7 6 2 
389 1 8 6 2 
390 1 9 6 2 
391 1 0 7 2 
392 1 1 7 2 
393 1 2 7 2 
394 1 3 7 2 
395 1 4 7 2 
396 1 5 7 2 
397 1 6 7 2 
398 1 7 7 2 
399 1 8 7 2 
400 1 9 7 2 
401 1 0 8 2 
402 1 1 8 2 
403 1 2 8 2 
404 1 3 8 2 
405 1 4 8 2 
406 1 5 8 2 
407 1 6 8 2 
408 1 7 8 2 
409 1 8 8 2 
410 1 9 8 2 
411 1 0 9 2 
412 1 1 9 2 
413 1 2 9 2 
414 1 3 9 2 
415 1 4 9 2 
416 1 5 9 2 
417 1 6 9 2 
418 1 7 9 2 
419 1 8 9 2 
420 1 9 9 2 
421 2 0 10 2 
422 2 1 10 2 
423 2 2 10 2 
424 2 3 10 2 
425 2 4 10 2 
426 2 5 10 2 
427 2 6 10 2 
428 3 7 10 2 
429 3 8 10 2 
430 3 9 10 2 
431 2 0 11 2 
432 2 1 11 2 
433 2 2 11 2 
434 2 3 11 2 
435 2 4 11 2 
436 2 5 11 2 
437 2 6 11 2 
438 3 7 11 2 
439 3 8 11 2 
440 3 9 11 2 
441 0 0 12 2 
442 0 1 12 2 
443 0 2 12 2 
444 0 3 12 2 
445 0 4 12 2 
446 0 5 12 2 
447 0 6 12 2 
448 0 7 12 2 
449 0 8 12 2 
450 0 9 12 2 
451 0 0 13 2 
452 0 1 13 2 
453 0 2 13 2 
454 0 3 13 2 
455 0 4 13 2 
456 0 5 13 2 
457 0 6 13 2 
458 0 7 13 2 
459 0 8 13 2 
460 0 9 13 2 
461 0 0 14 2 
462 0 1 14 2 
463 0 2 14 2 
464 0 3 14 2 
465 0 4 14 2 
466 0 5 14 2 
467 0 6 14 2 
468 0 7 14 2 
469 0 8 14 2 
470 0 9 14 2 
471 4 0 15 2 
472 4 1 15 2 
473 4 2 15 2 
474 4 3 15 2 
475 4 4 15 2 
476 4 5 15 2 
477 4 6 15 2 
478 4 7 15 2 
479 4 8 15 2 
480 4 9 15 2 
ITEM: TIMESTEP
3    3.00163
ITEM: NUMBER OF ATOMS
480
ITEM: BOX BOUNDS
0 10
0 16
0 3
ITEM: ATOMS id type x y z
1 1 0 0 0 
2 1 1 0 0 
3 1 2 0 0 
4 1 3 0 0 
5 1 4 0 0 
6 1 5 0 0 
7 1 6 0 0 
8 1 7 0 0 
9 1 8 0 0 
10 1 9 0 0 
11 1 0 1 0 
12 1 1 1 0 
13 1 2 1 0 
14 1 3 1 0 
15 1 4 1 0 
16 1 5 1 0 
17 1 6 1 0 
18 1 7 1 0 
19 1 8 1 0 
20 1 9 1 0 
21 1 0 2 0 
22 1 1 2 0 
23 1 2 2 0 
24 1 3 2 0 
25 1 4 2 0 
26 1 5 2 0 
27 1 6 2 0 
28 1 7 2 0 
29 1 8 2 0 
30 1 9 2 0 
31 1 0 3 0 
32 1 1 3 0 
33 1 2 3 0 
34 1 3 3 0 
35 1 4 3 0 
36 1 5 3 0 
37 1 6 3 0 
38 1 7 3 0 
39 1 8 3 0 
40 1 9 3 0 
41 1 0 4 0 
42 1 1 4 0 
43 1 2 4 0 
44 1 3 4 0 
45 1 4 4 0 
46 1 5 4 0 
47 1 6 4 0 
48 1 7 4 0 
49 1 8 4 0 
50 1 9 4 0 
51 1 0 5 0 
52 1 1 5 0 
53 1 2 5 0 
54 1 3 5 0 
55 1 4 5 0 
56 1 5 5 0 
57 1 6 5 0 
58 1 7 5 0 
59 1 8 5 0 
60 1 9 5 0 
61 1 0 6 0 
62 1 1 6 0 
63 1 2 6 0 
64 1 3 6 0 
65 1 4 6 0 
66 1 5 6 0 
67 1 6 6 0 
68 1 7 6 0 
69 1 8 6 0 
70 1 9 6 0 
71 1 0 7 0 
72 1 1 7 0 
73 1 2 7 0 
74 1 3 7 0 
75 1 4 7 0 
76 1 5 7 0 
77 1 6 7 0 
78 1 7 7 0 
79 1 8 7 0 
80 1 9 7 0 
81 1 0 8 0 
82 1 1 8 0 
83 1 2 8 0 
84 1 3 8 0 
85 1 4 8 0 
86 1 5 8 0 
87 1 6 8 0 
88 1 7 8 0 
89 1 8 8 0 
90 1 9 8 0 
91 1 0 9 0 
92 1 1 9 0 
93 1 2 9 0 
94 1 3 9 0 
95 1 4 9 0 
96 1 5 9 0 
97 1 6 9 0 
98 1 7 9 0 
99 1 8 9 0 
100 1 9 9 0 
101 2 0 10 0 
102 2 1 10 0 
103 2 2 10 0 
104 2 3 10 0 
105 2 4 10 0 
106 2 5 10 0 
107 3 6 10 0 
108 3 7 10 0 
109 3 8 10 0 
110 3 9 10 0 
111 2 0 11 0 
112 2 1 11 0 
113 2 2 11 0 
114 2 3 11 0 
115 2 4 11 0 
116 2 5 11 0 
117 3 6 11 0 
118 0 7 11 0 
119 3 8 11 0 
120 0 9 11 0 
121 0 0 12 0 
122 0 1 12 0 
123 0 2 12 0 
124 0 3 12 0 
125 0 4 12 0 
126 0 5 12 0 
127 0 6 12 0 
128 0 7 12 0 
129 0 8 12 0 
130 0 9 12 0 
131 0 0 13 0 
132 0 1 13 0 
133 0 2 13 0 
134 5 3 13 0 
135 0 4 13 0 
136 0 5 13 0 
137 0 6 13 0 
138 0 7 13 0 
139 0 8 13 0 
140 0 9 13 0 
141 0 0 14 0 
142 0 1 14 0 
143 0 2 14 0 
144 0 3 14 0 
145 0 4 14 0 
146 0 5 14 0 
147 0 6 14 0 
148 0 7 14 0 
149 0 8 14 0 
150 0 9 14 0 
151 4 0 15 0 
152 4 1 15 0 
153 4 2 15 0 
154 4 3 15 0 
155 4 4 15 0 
156 4 5 15 0 
157 4 6 15 0 
158 4 7 15 0 
159 4 8 15 0 
160 4 9 15 0 
161 1 0 0 1 
162 1 1 0 1 
163 1 2 0 1 
164 1 3 0 1 
165 1 4 0 1 
166 1 5 0 1 
167 1 6 0 1 
168 1 7 0 1 
169 1 8 0 1 
170 1 9 0 1 
171 1 0 1 1 
172 1 1 1 1 
173 1 2 1 1 
174 1 3 1 1 
175 1 4 1 1 
176 1 5 1 1 
177 1 6 1 1 
178 1 7 1 1 
179 1 8 1 1 
180 1 9 1 1 
181 1 0 2 1 
182 1 1 2 1 
183 1 2 2 1 
184 1 3 2 1 
185 1 4 2 1 
186 1 5 2 1 
187 1 6 2 1 
188 1 7 2 1 
189 1 8 2 1 
190 1 9 2 1 
191 1 0 3 1 
192 1 1 3 1 
193 1 2 3 1 
194 1 3 3 1 
195 1 4 3 1 
196 1 5 3 1 
197 1 6 3 1 
198 1 7 3 1 
199 1 8 3 1 
200 1 9 3 1 
201 1 0 4 1 
202 1 1 4 1 
203 1 2 4 1 
204 1 3 4 1 
205 1 4 4 1 
206 1 5 4 1 
207 1 6 4 1 
208 1 7 4 1 
209 1 8 4 1 
210 1 9 4 1 
211 1 0 5 1 
212 1 1 5 1 
213 1 2 5 1 
214 1 3 5 1 
215 1 4 5 1 
216 1 5 5 1 
217 1 6 5 1 
218 1 7 5 1 
219 1 8 5 1 
220 1 9 5 1 
221 1 0 6 1 
222 1 1 6 1 
223 1 2 6 1 
224 1 3 6 1 
225 1 4 6 1 
226 1 5 6 1 
227 1 6 6 1 
228 1 7 6 1 
229 1 8 6 1 
230 1 9 6 1 
231 1 0 7 1 
232 1 1 7 1 
233 1 2 7 1 
234 1 3 7 1 
235 1 4 7 1 
236 1 5 7 1 
237 1 6 7 1 
238 1 7 7 1 
239 1 8 7 1 
240 1 9 7 1 
241 1 0 8 1 
242 1 1 8 1 
243 1 2 8 1 
244 1 3 8 1 
245 1 4 8 1 
246 1 5 8 1 
247 1 6 8 1 
248 1 7 8 1 
249 1 8 8 1 
250 1 9 8 1 
251 1 0 9 1 
252 1 1 9 1 
253 1 2 9 1 
254 1 3 9 1 
255 1 4 9 1 
256 1 5 9 1 
257 1 6 9 1 
258 1 7 9 1 
259 1 8 9 1 
260 1 9 9 1 
261 2 0 10 1 
262 2 1 10 1 
263 2 2 10 1 
264 2 3 10 1 
265 2 4 10 1 
266 2 5 10 1 
267 3 6 10 1 
268 3 7 10 1 
269 3 8 10 1 
270 3 9 10 1 
271 2 0 11 1 
272 2 1 11 1 
273 2 2 11 1 
274 2 3 11 1 
275 2 4 11 1 
276 2 5 11 1 
277 0 6 11 1 
278 0 7 11 1 
279 0 8 11 1 
280 0 9 11 1 
281 5 0 12 1 
282 5 1 12 1 
283 2 2 12 1 
284 0 3 12 1 
285 0 4 12 1 
286 0 5 12 1 
287 5 6 12 1 
288 0 7 12 1 
289 0 8 12 1 
290 0 9 12 1 
291 0 0 13 1 
292 0 1 13 1 
293 0 2 13 1 
294 0 3 13 1 
295 0 4 13 1 
296 0 5 13 1 
297 0 6 13 1 
298 0 7 13 1 
299 0 8 13 1 
300 0 9 13 1 
301 0 0 14 1 
302 0 1 14 1 
303 0 2 14 1 
304 0 3 14 1 
305 0 4 14 1 
306 0 5 14 1 
307 0 6 14 1 
308 0 7 14 1 
309 0 8 14 1 
310 0 9 14 1 
311 4 0 15 1 
312 4 1 15 1 
313 4 2 15 1 
314 4 3 15 1 
315 4 4 15 1 
316 4 5 15 1 
317 4 6 15 1 
318 4 7 15 1 
319 4 8 15 1 
320 4 9 15 1 
321 1 0 0 2 
322 1 1 0 2 
323 1 2 0 2 
324 1 3 0 2 
325 1 4 0 2 
326 1 5 0 2 
327 1 6 0 2 
328 1 7 0 2 
329 1 8 0 2 
330 1 9 0 2 
331 1 0 1 2 
332 1 1 1 2 
333 1 2 1 2 
334 1 3 1 2 
335 1 4 1 2 
336 1 5 1 2 
337 1 6 1 2 
338 1 7 1 2 
339 1 8 1 2 
340 1 9 1 2 
341 1 0 2 2 
342 1 1 2 2 
343 1 2 2 2 
344 1 3 2 2 
345 1 4 2 2 
346 1 5 2 2 
347 1 6 2 2 
348 1 7 2 2 
349 1 8 2 2 
350 1 9 2 2 
351 1 0 3 2 
352 1 1 3 2 
353 1 2 3 2 
354 1 3 3 2 
355 1 4 3 2 
356 1 5 3 2 
357 1 6 3 2 
358 1 7 3 2 
359 1 8 3 2 
360 1 9 3 2 
361 1 0 4 2 
362 1 1 4 2 
363 1 2 4 2 
364 1 3 4 2 
365 1 4 4 2 
366 1 5 4 2 
367 1 6 4 2 
368 1 7 4 2 
369 1 8 4 2 
370 1 9 4 2 
371 1 0 5 2 
372 1 1 5 2 
373 1 2 5 2 
374 1 3 5 2 
375 1 4 5 2 
376 1 5 5 2 
377 1 6 5 2 
378 1 7 5 2 
379 1 8 5 2 
380 1 9 5 2 
381 1 0 6 2 
382 1 1 6 2 
383 1 2 6 2 
384 1 3 6 2 
385 1 4 6 2 
386 1 5 6 2 
387 1 6 6 2 
388 1 7 6 2 
389 1 8 6 2 
390 1 9 6 2 
391 1 0 7 2 
392 1 1 7 2 
393 1 2 7 2 
394 1 3 7 2 
395 1 4 7 2 
396 1 5 7 2 
397 1 6 7 2 
398 1 7 7 2 
399 1 8 7 2 
400 1 9 7 2 
401 1 0 8 2 
402 1 1 8 2 
403 1 2 8 2 
404 1 3 8 2 
405 1 4 8 2 
406 1 5 8 2 
407 1 6 8 2 
408 1 7 8 2 
409 1 8 8 2 
410 1 9 8 2 
411 1 0 9 2 
412 1 1 9 2 
413 1 2 9 2 
414 1 3 9 2 
415 1 4 9 2 
416 1 5 9 2 
417 1 6 9 2 
418 1 7 9 2 
419 1 8 9 2 
420 1 9 9 2 
421 2 0 10 2 
422 2 1 10 2 
423 2 2 10 2 
424 2 3 10 2 
425 2 4 10 2 
426 2 5 10 2 
427 3 6 10 2 
428 3 7 10 2 
429 3 8 10 2 
430 3 9 10 2 
431 2 0 11 2 
432 2 1 11 2 
433 2 2 11 2 
434 2 3 11 2 
435 2 4 11 2 
436 2 5 11 2 
437 3 6 11 2 
438 3 7 11 2 
439 0 8 11 2 
440 0 9 11 2 
441 0 0 12 2 
442 0 1 12 2 
443 0 2 12 2 
444 0 3 12 2 
445 0 4 12 2 
446 0 5 12 2 
447 0 6 12 2 
448 0 7 12 2 
449 0 8 12 2 
450 0 9 12 2 
451 0 0 13 2 
452 0 1 13 2 
453 0 2 13 2 
454 0 3 13 2 
455 0 4 13 2 
456 0 5 13 2 
457 0 6 13 2 
458 0 7 13 2 
459 0 8 13 2 
460 0 9 13 2 
461 0 0 14 2 
462 0 1 14 2 
463 0 2 14 2 
464 0 3 14 2 
465 0 4 14 2 
466 0 5 14 2 
467 0 6 14 2 
468 0 7 14 2 
469 0 8 14 2 
470 0 9 14 2 
471 4 0 15 2 
472 4 1 15 2 
473 4 2 15 2 
474 4 3 15 2 
475 4 4 15 2 
476 4 5 15 2 
477 4 6 15 2 
478 4 7 15 2 
479 4 8 15 2 
480 4 9 15 2 
ITEM: TIMESTEP
4    4.00852
ITEM: NUMBER OF ATOMS
480
ITEM: BOX BOUNDS
0 10
0 16
0 3
ITEM: ATOMS id type x y z
1 1 0 0 0 
2 1 1 0 0 
3 1 2 0 0 
4 1 3 0 0 
5 1 4 0 0 
6 1 5 0 0 
7 1 6 0 0 
8 1 7 0 0 
9 1 8 0 0 
10 1 9 0 0 
11 1 0 1 0 
12 1 1 1 0 
13 1 2 1 0 
14 1 3 1 0 
15 1 4 1 0 
16 1 5 1 0 
17 1 6 1 0 
18 1 7 1 0 
19 1 8 1 0 
20 1 9 1 0 
21 1 0 2 0 
22 1 1 2 0 
23 1 2 2 0 
24 1 3 2 0 
25 1 4 2 0 
26 1 5 2 0 
27 1 6 2 0 
28 1 7 2 0 
29 1 8 2 0 
30 1 9 2 0 
31 1 0 3 0 
32 1 1 3 0 
33 1 2 3 0 
34 1 3 3 0 
35 1 4 3 0 
36 1 5 3 0 
37 1 6 3 0 
38 1 7 3 0 
39 1 8 3 0 
40 1 9 3 0 
41 1 0 4 0 
42 1 1 4 0 
43 1 2 4 0 
44 1 3 4 0 
45 1 4 4 0 
46 1 5 4 0 
47 1 6 4 0 
48 1 7 4 0 
49 1 8 4 0 
50 1 9 4 0 
51 1 0 5 0 
52 1 1 5 0 
53 1 2 5 0 
54 1 3 5 0 
55 1 4 5 0 
56 1 5 5 0 
57 1 6 5 0 
58 1 7 5 0 
59 1 8 5 0 
60 1 9 5 0 
61 1 0 6 0 
62 1 1 6 0 
63 1 2 6 0 
64 1 3 6 0 
65 1 4 6 0 
66 1 5 6 0 
67 1 6 6 0 
68 1 7 6 0 
69 1 8 6 0 
70 1 9 6 0 
71 1 0 7 0 
72 1 1 7 0 
73 1 2 7 0 
74 1 3 7 0 
75 1 4 7 0 
76 1 5 7 0 
77 1 6 7 0 
78 1 7 7 0 
79 1 8 7 0 
80 1 9 7 0 
81 1 0 8 0 
82 1 1 8 0 
83 1 2 8 0 
84 1 3 8 0 
85 1 4 8 0 
86 1 5 8 0 
87 1 6 8 0 
88 1 7 8 0 
89 1 8 8 0 
90 1 9 8 0 
91 1 0 9 0 
92 1 1 9 0 
93 1 2 9 0 
94 1 3 9 0 
95 1 4 9 0 
96 1 5 9 0 
97 1 6 9 0 
98 1 7 9 0 
99 1 8 9 0 
100 1 9 9 0 
101 2 0 10 0 
102 2 1 10 0 
103 2 2 10 0 
104 2 3 10 0 
105 2 4 10 0 
106 3 5 10 0 
107 3 6 10 0 
108 3 7 10 0 
109 3 8 10 0 
110 3 9 10 0 
111 2 0 11 0 
112 2 1 11 0 
113 2 2 11 0 
114 2 3 11 0 
115 2 4 11 0 
116 3 5 11 0 
117 3 6 11 0 
118 0 7 11 0 
119 3 8 11 0 
120 0 9 11 0 
121 0 0 12 0 
122 0 1 12 0 
123 0 2 12 0 
124 2 3 12 0 
125 2 4 12 0 
126 5 5 12 0 
127 0 6 12 0 
128 0 7 12 0 
129 0 8 12 0 
130 0 9 12 0 
131 0 0 13 0 
132 0 1 13 0 
133 0 2 13 0 
134 2 3 13 0 
135 0 4 13 0 
136 0 5 13 0 
137 0 6 13 0 
138 0 7 13 0 
139 0 8 13 0 
140 0 9 13 0 
141 0 0 14 0 
142 0 1 14 0 
143 0 2 14 0 
144 0 3 14 0 
145 0 4 14 0 
146 0 5 14 0 
147 0 6 14 0 
148 0 7 14 0 
149 0 8 14 0 
150 0 9 14 0 
151 4 0 15 0 
152 4 1 15 0 
153 4 2 15 0 
154 4 3 15 0 
155 4 4 15 0 
156 4 5 15 0 
157 4 6 15 0 
158 4 7 15 0 
159 4 8 15 0 
160 4 9 15 0 
161 1 0 0 1 
162 1 1 0 1 
163 1 2 0 1 
164 1 3 0 1 
165 1 4 0 1 
166 1 5 0 1 
167 1 6 0 1 
168 1 7 0 1 
169 1 8 0 1 
170 1 9 0 1 
171 1 0 1 1 
172 1 1 1 1 
173 1 2 1 1 
174 1 3 1 1 
175 1 4 1 1 
176 1 5 1 1 
177 1 6 1 1 
178 1 7 1 1 
179 1 8 1 1 
180 1 9 1 1 
181 1 0 2 1 
182 1 1 2 1 
183 1 2 2 1 
184 1 3 2 1 
185 1 4 2 1 
186 1 5 2 1 
187 1 6 2 1 
188 1 7 2 1 
189 1 8 2 1 
190 1 9 2 1 
191 1 0 3 1 
192 1 1 3 1 
193 1 2 3 1 
194 1 3 3 1 
195 1 4 3 1 
196 1 5 3 1 
197 1 6 3 1 
198 1 7 3 1 
199 1 8 3 1 
200 1 9 3 1 
201 1 0 4 1 
202 1 1 4 1 
203 1 2 4 1 
204 1 3 4 1 
205 1 4 4 1 
206 1 5 4 1 
207 1 6 4 1 
208 1 7 4 1 
209 1 8 4 1 
210 1 9 4 1 
211 1 0 5 1 
212 1 1 5 1 
213 1 2 5 1 
214 1 3 5 1 
215 1 4 5 1 
216 1 5 5 1 
217 1 6 5 1 
218 1 7 5 1 
219 1 8 5 1 
220 1 9 5 1 
221 1 0 6 1 
222 1 1 6 1 
223 1 2 6 1 
224 1 3 6 1 
225 1 4 6 1 
226 1 5 6 1 
227 1 6 6 1 
228 1 7 6 1 
229 1 8 6 1 
230 1 9 6 1 
231 1 0 7 1 
232 1 1 7 1 
233 1 2 7 1 
234 1 3 7 1 
235 1 4 7 1 
236 1 5 7 1 
237 1 6 7 1 
238 1 7 7 1 
239 1 8 7 1 
240 1 9 7 1 
241 1 0 8 1 
242 1 1 8 1 
243 1 2 8 1 
244 1 3 8 1 
245 1 4 8 1 
246 1 5 8 1 
247 1 6 8 1 
248 1 7 8 1 
249 1 8 8 1 
250 1 9 8 1 
251 1 0 9 1 
252 1 1 9 1 
253 1 2 9 1 
254 1 3 9 1 
255 1 4 9 1 
256 1 5 9 1 
257 1 6 9 1 
258 1 7 9 1 
259 1 8 9 1 
260 1 9 9 1 
261 2 0 10 1 
262 2 1 10 1 
263 2 2 10 1 
264 2 3 10 1 
265 2 4 10 1 
266 3 5 10 1 
267 0 6 10 1 
268 0 7 10 1 
269 0 8 10 1 
270 3 9 10 1 
271 2 0 11 1 
272 2 1 11 1 
273 2 2 11 1 
274 2 3 11 1 
275 2 4 11 1 
276 0 5 11 1 
277 0 6 11 1 
278 0 7 11 1 
279 0 8 11 1 
280 0 9 11 1 
281 5 0 12 1 
282 0 1 12 1 
283 2 2 12 1 
284 0 3 12 1 
285 0 4 12 1 
286 0 5 12 1 
287 0 6 12 1 
288 0 7 12 1 
289 0 8 12 1 
290 0 9 12 1 
291 0 0 13 1 
292 0 1 13 1 
293 0 2 13 1 
294 0 3 13 1 
295 0 4 13 1 
296 0 5 13 1 
297 0 6 13 1 
298 0 7 13 1 
299 0 8 13 1 
300 0 9 13 1 
301 0 0 14 1 
302 0 1 14 1 
303 0 2 14 1 
304 0 3 14 1 
305 0 4 14 1 
306 0 5 14 1 
307 0 6 14 1 
308 0 7 14 1 
309 0 8 14 1 
310 0 9 14 1 
311 4 0 15 1 
312 4 1 15 1 
313 4 2 15 1 
314 4 3 15 1 
315 4 4 15 1 
316 4 5 15 1 
317 4 6 15 1 
318 4 7 15 1 
319 4 8 15 1 
320 4 9 15 1 
321 1 0 0 2 