ITEM: TIMESTEP
2    20.0828
ITEM: NUMBER OF ATOMS
2500
ITEM: BOX BOUNDS
0 25
0 5
0 5
ITEM: ATOMS id type x y z
1 0 0 0 0 
2 2 0 0.5 0.5 
3 0 0.5 0 0.5 
4 0 0.5 0.5 0 
5 3 1 0 0 
6 1 1 0.5 0.5 
7 0 1.5 0 0.5 
8 3 1.5 0.5 0 
9 1 2 0 0 
10 0 2 0.5 0.5 
11 0 2.5 0 0.5 
12 0 2.5 0.5 0 
13 0 3 0 0 
14 0 3 0.5 0.5 
15 0 3.5 0 0.5 
16 0 3.5 0.5 0 
17 3 4 0 0 
18 0 4 0.5 0.5 
19 1 4.5 0 0.5 
20 0 4.5 0.5 0 
21 0 5 0 0 
22 0 5 0.5 0.5 
23 0 5.5 0 0.5 
24 1 5.5 0.5 0 
25 0 6 0 0 
26 0 6 0.5 0.5 
27 1 6.5 0 0.5 
28 0 6.5 0.5 0 
29 0 7 0 0 
30 0 7 0.5 0.5 
31 0 7.5 0 0.5 
32 0 7.5 0.5 0 
33 0 8 0 0 
34 0 8 0.5 0.5 
35 1 8.5 0 0.5 
36 0 8.5 0.5 0 
37 0 9 0 0 
38 0 9 0.5 0.5 
39 0 9.5 0 0.5 
40 1 9.5 0.5 0 
41 0 10 0 0 
42 0 10 0.5 0.5 
43 1 10.5 0 0.5 
44 0 10.5 0.5 0 
45 0 11 0 0 
46 0 11 0.5 0.5 
47 3 11.5 0 0.5 
48 0 11.5 0.5 0 
49 0 12 0 0 
50 1 12 0.5 0.5 
51 0 12.5 0 0.5 
52 3 12.5 0.5 0 
53 0 13 0 0 
54 1 13 0.5 0.5 
55 0 13.5 0 0.5 
56 3 13.5 0.5 0 
57 0 14 0 0 
58 0 14 0.5 0.5 
59 1 14.5 0 0.5 
60 0 14.5 0.5 0 
61 1 15 0 0 
62 1 15 0.5 0.5 
63 0 15.5 0 0.5 
64 3 15.5 0.5 0 
65 3 16 0 0 
66 0 16 0.5 0.5 
67 1 16.5 0 0.5 
68 0 16.5 0.5 0 
69 0 17 0 0 
70 0 17 0.5 0.5 
71 0 17.5 0 0.5 
72 0 17.5 0.5 0 
73 0 18 0 0 
74 0 18 0.5 0.5 
75 1 18.5 0 0.5 
76 3 18.5 0.5 0 
77 0 19 0 0 
78 1 19 0.5 0.5 
79 0 19.5 0 0.5 
80 3 19.5 0.5 0 
81 0 20 0 0 
82 0 20 0.5 0.5 
83 0 20.5 0 0.5 
84 2 20.5 0.5 0 
85 0 21 0 0 
86 0 21 0.5 0.5 
87 0 21.5 0 0.5 
88 0 21.5 0.5 0 
89 0 22 0 0 
90 0 22 0.5 0.5 
91 1 22.5 0 0.5 
92 3 22.5 0.5 0 
93 0 23 0 0 
94 0 23 0.5 0.5 
95 3 23.5 0 0.5 
96 0 23.5 0.5 0 
97 1 24 0 0 
98 3 24 0.5 0.5 
99 2 24.5 0 0.5 
100 1 24.5 0.5 0 
101 0 0 1 0 
102 1 0 1.5 0.5 
103 3 0.5 1 0.5 
104 0 0.5 1.5 0 
105 0 1 1 0 
106 0 1 1.5 0.5 
107 1 1.5 1 0.5 
108 0 1.5 1.5 0 
109 1 2 1 0 
110 1 2 1.5 0.5 
111 0 2.5 1 0.5 
112 1 2.5 1.5 0 
113 0 3 1 0 
114 0 3 1.5 0.5 
115 0 3.5 1 0.5 
116 0 3.5 1.5 0 
117 0 4 1 0 
118 1 4 1.5 0.5 
119 0 4.5 1 0.5 
120 0 4.5 1.5 0 
121 3 5 1 0 
122 0 5 1.5 0.5 
123 1 5.5 1 0.5 
124 0 5.5 1.5 0 
125 0 6 1 0 
126 0 6 1.5 0.5 
127 0 6.5 1 0.5 
128 0 6.5 1.5 0 
129 0 7 1 0 
130 1 7 1.5 0.5 
131 0 7.5 1 0.5 
132 0 7.5 1.5 0 
133 0 8 1 0 
134 0 8 1.5 0.5 
135 1 8.5 1 0.5 
136 0 8.5 1.5 0 
137 3 9 1 0 
138 0 9 1.5 0.5 
139 0 9.5 1 0.5 
140 0 9.5 1.5 0 
141 0 10 1 0 
142 0 10 1.5 0.5 
143 0 10.5 1 0.5 
144 1 10.5 1.5 0 
145 0 11 1 0 
146 3 11 1.5 0.5 
147 1 11.5 1 0.5 
148 2 11.5 1.5 0 
149 2 12 1 0 
150 0 12 1.5 0.5 
151 1 12.5 1 0.5 
152 3 12.5 1.5 0 
153 0 13 1 0 
154 0 13 1.5 0.5 
155 1 13.5 1 0.5 
156 0 13.5 1.5 0 
157 0 14 1 0 
158 0 14 1.5 0.5 
159 0 14.5 1 0.5 
160 0 14.5 1.5 0 
161 2 15 1 0 
162 0 15 1.5 0.5 
163 0 15.5 1 0.5 
164 0 15.5 1.5 0 
165 0 16 1 0 
166 0 16 1.5 0.5 
167 1 16.5 1 0.5 
168 1 16.5 1.5 0 
169 0 17 1 0 
170 0 17 1.5 0.5 
171 0 17.5 1 0.5 
172 0 17.5 1.5 0 
173 0 18 1 0 
174 1 18 1.5 0.5 
175 0 18.5 1 0.5 
176 0 18.5 1.5 0 
177 0 19 1 0 
178 0 19 1.5 0.5 
179 0 19.5 1 0.5 
180 3 19.5 1.5 0 
181 0 20 1 0 
182 0 20 1.5 0.5 
183 0 20.5 1 0.5 
184 0 20.5 1.5 0 
185 1 21 1 0 
186 1 21 1.5 0.5 
187 0 21.5 1 0.5 
188 3 21.5 1.5 0 
189 0 22 1 0 
190 0 22 1.5 0.5 
191 1 22.5 1 0.5 
192 3 22.5 1.5 0 
193 3 23 1 0 
194 3 23 1.5 0.5 
195 1 23.5 1 0.5 
196 0 23.5 1.5 0 
197 0 24 1 0 
198 1 24 1.5 0.5 
199 0 24.5 1 0.5 
200 0 24.5 1.5 0 
201 0 0 2 0 
202 0 0 2.5 0.5 
203 1 0.5 2 0.5 
204 0 0.5 2.5 0 
205 3 1 2 0 
206 2 1 2.5 0.5 
207 0 1.5 2 0.5 
208 0 1.5 2.5 0 
209 0 2 2 0 
210 1 2 2.5 0.5 
211 1 2.5 2 0.5 
212 3 2.5 2.5 0 
213 1 3 2 0 
214 1 3 2.5 0.5 
215 0 3.5 2 0.5 
216 0 3.5 2.5 0 
217 0 4 2 0 
218 0 4 2.5 0.5 
219 3 4.5 2 0.5 
220 1 4.5 2.5 0 
221 0 5 2 0 
222 3 5 2.5 0.5 
223 0 5.5 2 0.5 
224 0 5.5 2.5 0 
225 1 6 2 0 
226 0 6 2.5 0.5 
227 3 6.5 2 0.5 
228 1 6.5 2.5 0 
229 0 7 2 0 
230 3 7 2.5 0.5 
231 0 7.5 2 0.5 
232 0 7.5 2.5 0 
233 0 8 2 0 
234 0 8 2.5 0.5 
235 0 8.5 2 0.5 
236 1 8.5 2.5 0 
237 0 9 2 0 
238 1 9 2.5 0.5 
239 0 9.5 2 0.5 
240 0 9.5 2.5 0 
241 0 10 2 0 
242 1 10 2.5 0.5 
243 1 10.5 2 0.5 
244 1 10.5 2.5 0 
245 3 11 2 0 
246 0 11 2.5 0.5 
247 1 11.5 2 0.5 
248 0 11.5 2.5 0 
249 0 12 2 0 
250 0 12 2.5 0.5 
251 0 12.5 2 0.5 
252 0 12.5 2.5 0 
253 1 13 2 0 
254 0 13 2.5 0.5 
255 0 13.5 2 0.5 
256 3 13.5 2.5 0 
257 0 14 2 0 
258 3 14 2.5 0.5 
259 3 14.5 2 0.5 
260 3 14.5 2.5 0 
261 0 15 2 0 
262 0 15 2.5 0.5 
263 0 15.5 2 0.5 
264 1 15.5 2.5 0 
265 0 16 2 0 
266 0 16 2.5 0.5 
267 0 16.5 2 0.5 
268 1 16.5 2.5 0 
269 3 17 2 0 
270 0 17 2.5 0.5 
271 0 17.5 2 0.5 
272 3 17.5 2.5 0 
273 0 18 2 0 
274 1 18 2.5 0.5 
275 0 18.5 2 0.5 
276 2 18.5 2.5 0 
277 0 19 2 0 
278 0 19 2.5 0.5 
279 0 19.5 2 0.5 
280 2 19.5 2.5 0 
281 0 20 2 0 
282 0 20 2.5 0.5 
283 0 20.5 2 0.5 
284 3 20.5 2.5 0 
285 0 21 2 0 
286 0 21 2.5 0.5 
287 0 21.5 2 0.5 
288 3 21.5 2.5 0 
289 0 22 2 0 
290 0 22 2.5 0.5 
291 0 22.5 2 0.5 
292 0 22.5 2.5 0 
293 0 23 2 0 
294 0 23 2.5 0.5 
295 1 23.5 2 0.5 
296 0 23.5 2.5 0 
297 0 24 2 0 
298 0 24 2.5 0.5 
299 0 24.5 2 0.5 
300 1 24.5 2.5 0 
301 0 0 3 0 
302 0 0 3.5 0.5 
303 0 0.5 3 0.5 
304 0 0.5 3.5 0 
305 1 1 3 0 
306 0 1 3.5 0.5 
307 2 1.5 3 0.5 
308 0 1.5 3.5 0 
309 0 2 3 0 
310 0 2 3.5 0.5 
311 0 2.5 3 0.5 
312 1 2.5 3.5 0 
313 0 3 3 0 
314 0 3 3.5 0.5 
315 0 3.5 3 0.5 
316 1 3.5 3.5 0 
317 0 4 3 0 
318 0 4 3.5 0.5 
319 1 4.5 3 0.5 
320 3 4.5 3.5 0 
321 0 5 3 0 
322 0 5 3.5 0.5 
323 1 5.5 3 0.5 
324 0 5.5 3.5 0 
325 1 6 3 0 
326 0 6 3.5 0.5 
327 0 6.5 3 0.5 
328 0 6.5 3.5 0 
329 1 7 3 0 
330 0 7 3.5 0.5 
331 0 7.5 3 0.5 
332 1 7.5 3.5 0 
333 1 8 3 0 
334 0 8 3.5 0.5 
335 0 8.5 3 0.5 
336 0 8.5 3.5 0 
337 0 9 3 0 
338 0 9 3.5 0.5 
339 0 9.5 3 0.5 
340 0 9.5 3.5 0 
341 0 10 3 0 
342 1 10 3.5 0.5 
343 0 10.5 3 0.5 
344 0 10.5 3.5 0 
345 1 11 3 0 
346 0 11 3.5 0.5 
347 0 11.5 3 0.5 
348 0 11.5 3.5 0 
349 0 12 3 0 
350 1 12 3.5 0.5 
351 1 12.5 3 0.5 
352 0 12.5 3.5 0 
353 1 13 3 0 
354 0 13 3.5 0.5 
355 0 13.5 3 0.5 
356 1 13.5 3.5 0 
357 1 14 3 0 
358 0 14 3.5 0.5 
359 3 14.5 3 0.5 
360 0 14.5 3.5 0 
361 1 15 3 0 
362 0 15 3.5 0.5 
363 0 15.5 3 0.5 
364 3 15.5 3.5 0 
365 0 16 3 0 
366 0 16 3.5 0.5 
367 0 16.5 3 0.5 
368 0 16.5 3.5 0 
369 1 17 3 0 
370 0 17 3.5 0.5 
371 0 17.5 3 0.5 
372 0 17.5 3.5 0 
373 0 18 3 0 
374 0 18 3.5 0.5 
375 0 18.5 3 0.5 
376 0 18.5 3.5 0 
377 3 19 3 0 
378 0 19 3.5 0.5 
379 0 19.5 3 0.5 
380 1 19.5 3.5 0 
381 1 20 3 0 
382 0 20 3.5 0.5 
383 0 20.5 3 0.5 
384 0 20.5 3.5 0 
385 3 21 3 0 
386 0 21 3.5 0.5 
387 0 21.5 3 0.5 
388 3 21.5 3.5 0 
389 1 22 3 0 
390 0 22 3.5 0.5 
391 3 22.5 3 0.5 
392 0 22.5 3.5 0 
393 0 23 3 0 
394 0 23 3.5 0.5 
395 0 23.5 3 0.5 
396 3 23.5 3.5 0 
397 0 24 3 0 
398 1 24 3.5 0.5 
399 1 24.5 3 0.5 
400 1 24.5 3.5 0 
401 0 0 4 0 
402 0 0 4.5 0.5 
403 1 0.5 4 0.5 
404 0 0.5 4.5 0 
405 0 1 4 0 
406 1 1 4.5 0.5 
407 0 1.5 4 0.5 
408 0 1.5 4.5 0 
409 0 2 4 0 
410 0 2 4.5 0.5 
411 1 2.5 4 0.5 
412 2 2.5 4.5 0 
413 0 3 4 0 
414 0 3 4.5 0.5 
415 0 3.5 4 0.5 
416 3 3.5 4.5 0 
417 0 4 4 0 
418 0 4 4.5 0.5 
419 0 4.5 4 0.5 
420 0 4.5 4.5 0 
421 1 5 4 0 
422 1 5 4.5 0.5 
423 0 5.5 4 0.5 
424 0 5.5 4.5 0 
425 0 6 4 0 
426 0 6 4.5 0.5 
427 0 6.5 4 0.5 
428 0 6.5 4.5 0 
429 0 7 4 0 
430 0 7 4.5 0.5 
431 1 7.5 4 0.5 
432 0 7.5 4.5 0 
433 2 8 4 0 
434 0 8 4.5 0.5 
435 1 8.5 4 0.5 
436 0 8.5 4.5 0 
437 0 9 4 0 
438 0 9 4.5 0.5 
439 1 9.5 4 0.5 
440 1 9.5 4.5 0 
441 0 10 4 0 
442 0 10 4.5 0.5 
443 0 10.5 4 0.5 
444 0 10.5 4.5 0 
445 0 11 4 0 
446 1 11 4.5 0.5 
447 0 11.5 4 0.5 
448 1 11.5 4.5 0 
449 0 12 4 0 
450 3 12 4.5 0.5 
451 1 12.5 4 0.5 
452 0 12.5 4.5 0 
453 0 13 4 0 
454 0 13 4.5 0.5 
455 0 13.5 4 0.5 
456 3 13.5 4.5 0 
457 0 14 4 0 
458 0 14 4.5 0.5 
459 0 14.5 4 0.5 
460 0 14.5 4.5 0 
461 0 15 4 0 
462 0 15 4.5 0.5 
463 2 15.5 4 0.5 
464 0 15.5 4.5 0 
465 0 16 4 0 
466 0 16 4.5 0.5 
467 1 16.5 4 0.5 
468 0 16.5 4.5 0 
469 1 17 4 0 
470 0 17 4.5 0.5 
471 0 17.5 4 0.5 
472 0 17.5 4.5 0 
473 0 18 4 0 
474 0 18 4.5 0.5 
475 0 18.5 4 0.5 
476 0 18.5 4.5 0 
477 3 19 4 0 
478 0 19 4.5 0.5 
479 0 19.5 4 0.5 
480 1 19.5 4.5 0 
481 1 20 4 0 
482 0 20 4.5 0.5 
483 0 20.5 4 0.5 
484 0 20.5 4.5 0 
485 3 21 4 0 
486 0 21 4.5 0.5 
487 0 21.5 4 0.5 
488 1 21.5 4.5 0 
489 0 22 4 0 
490 0 22 4.5 0.5 
491 0 22.5 4 0.5 
492 0 22.5 4.5 0 
493 3 23 4 0 
494 1 23 4.5 0.5 
495 0 23.5 4 0.5 
496 1 23.5 4.5 0 
497 0 24 4 0 
498 1 24 4.5 0.5 
499 0 24.5 4 0.5 
500 1 24.5 4.5 0 
501 0 0 0 1 
502 0 0 0.5 1.5 
503 0 0.5 0 1.5 
504 0 0.5 0.5 1 
505 0 1 0 1 
506 0 1 0.5 1.5 
507 1 1.5 0 1.5 
508 3 1.5 0.5 1 
509 0 2 0 1 
510 1 2 0.5 1.5 
511 1 2.5 0 1.5 
512 1 2.5 0.5 1 
513 1 3 0 1 
514 0 3 0.5 1.5 
515 0 3.5 0 1.5 
516 1 3.5 0.5 1 
517 0 4 0 1 
518 1 4 0.5 1.5 
519 0 4.5 0 1.5 
520 0 4.5 0.5 1 
521 0 5 0 1 
522 1 5 0.5 1.5 
523 0 5.5 0 1.5 
524 1 5.5 0.5 1 
525 1 6 0 1 
526 0 6 0.5 1.5 
527 0 6.5 0 1.5 
528 0 6.5 0.5 1 
529 0 7 0 1 
530 0 7 0.5 1.5 
531 3 7.5 0 1.5 
532 0 7.5 0.5 1 
533 0 8 0 1 
534 0 8 0.5 1.5 
535 0 8.5 0 1.5 
536 0 8.5 0.5 1 
537 2 9 0 1 
538 1 9 0.5 1.5 
539 1 9.5 0 1.5 
540 1 9.5 0.5 1 
541 1 10 0 1 
542 1 10 0.5 1.5 
543 0 10.5 0 1.5 
544 0 10.5 0.5 1 
545 0 11 0 1 
546 0 11 0.5 1.5 
547 1 11.5 0 1.5 
548 1 11.5 0.5 1 
549 0 12 0 1 
550 0 12 0.5 1.5 
551 0 12.5 0 1.5 
552 0 12.5 0.5 1 
553 0 13 0 1 
554 0 13 0.5 1.5 
555 0 13.5 0 1.5 
556 1 13.5 0.5 1 
557 0 14 0 1 
558 0 14 0.5 1.5 
559 0 14.5 0 1.5 
560 3 14.5 0.5 1 
561 2 15 0 1 
562 0 15 0.5 1.5 
563 0 15.5 0 1.5 
564 0 15.5 0.5 1 
565 1 16 0 1 
566 0 16 0.5 1.5 
567 0 16.5 0 1.5 
568 0 16.5 0.5 1 
569 0 17 0 1 
570 0 17 0.5 1.5 
571 0 17.5 0 1.5 
572 0 17.5 0.5 1 
573 0 18 0 1 
574 0 18 0.5 1.5 
575 0 18.5 0 1.5 
576 1 18.5 0.5 1 
577 0 19 0 1 
578 0 19 0.5 1.5 
579 1 19.5 0 1.5 
580 0 19.5 0.5 1 
581 0 20 0 1 
582 0 20 0.5 1.5 
583 0 20.5 0 1.5 
584 1 20.5 0.5 1 
585 0 21 0 1 
586 0 21 0.5 1.5 
587 0 21.5 0 1.5 
588 3 21.5 0.5 1 
589 2 22 0 1 
590 1 22 0.5 1.5 
591 0 22.5 0 1.5 
592 0 22.5 0.5 1 
593 1 23 0 1 
594 0 23 0.5 1.5 
595 0 23.5 0 1.5 
596 0 23.5 0.5 1 
597 0 24 0 1 
598 0 24 0.5 1.5 
599 0 24.5 0 1.5 
600 0 24.5 0.5 1 
601 0 0 1 1 
602 0 0 1.5 1.5 
603 0 0.5 1 1.5 
604 0 0.5 1.5 1 
605 0 1 1 1 
606 0 1 1.5 1.5 
607 0 1.5 1 1.5 
608 0 1.5 1.5 1 
609 0 2 1 1 
610 0 2 1.5 1.5 
611 3 2.5 1 1.5 
612 1 2.5 1.5 1 
613 0 3 1 1 
614 3 3 1.5 1.5 
615 0 3.5 1 1.5 
616 0 3.5 1.5 1 
617 3 4 1 1 
618 0 4 1.5 1.5 
619 0 4.5 1 1.5 
620 1 4.5 1.5 1 
621 0 5 1 1 
622 0 5 1.5 1.5 
623 0 5.5 1 1.5 
624 1 5.5 1.5 1 
625 0 6 1 1 
626 0 6 1.5 1.5 
627 1 6.5 1 1.5 
628 1 6.5 1.5 1 
629 0 7 1 1 
630 0 7 1.5 1.5 
631 1 7.5 1 1.5 
632 1 7.5 1.5 1 
633 0 8 1 1 
634 1 8 1.5 1.5 
635 0 8.5 1 1.5 
636 3 8.5 1.5 1 
637 0 9 1 1 
638 0 9 1.5 1.5 
639 0 9.5 1 1.5 
640 0 9.5 1.5 1 
641 0 10 1 1 
642 1 10 1.5 1.5 
643 1 10.5 1 1.5 
644 0 10.5 1.5 1 
645 0 11 1 1 
646 0 11 1.5 1.5 
647 0 11.5 1 1.5 
648 0 11.5 1.5 1 
649 0 12 1 1 
650 1 12 1.5 1.5 
651 0 12.5 1 1.5 
652 1 12.5 1.5 1 
653 0 13 1 1 
654 0 13 1.5 1.5 
655 0 13.5 1 1.5 
656 0 13.5 1.5 1 
657 0 14 1 1 
658 0 14 1.5 1.5 
659 1 14.5 1 1.5 
660 0 14.5 1.5 1 
661 0 15 1 1 
662 0 15 1.5 1.5 
663 1 15.5 1 1.5 
664 0 15.5 1.5 1 
665 0 16 1 1 
666 0 16 1.5 1.5 
667 0 16.5 1 1.5 
668 0 16.5 1.5 1 
669 0 17 1 1 
670 0 17 1.5 1.5 
671 0 17.5 1 1.5 
672 1 17.5 1.5 1 
673 1 18 1 1 
674 0 18 1.5 1.5 
675 0 18.5 1 1.5 
676 3 18.5 1.5 1 
677 0 19 1 1 
678 0 19 1.5 1.5 
679 0 19.5 1 1.5 
680 0 19.5 1.5 1 
681 0 20 1 1 
682 0 20 1.5 1.5 
683 0 20.5 1 1.5 
684 0 20.5 1.5 1 
685 1 21 1 1 
686 1 21 1.5 1.5 
687 0 21.5 1 1.5 
688 3 21.5 1.5 1 
689 0 22 1 1 
690 2 22 1.5 1.5 
691 1 22.5 1 1.5 
692 0 22.5 1.5 1 
693 1 23 1 1 
694 0 23 1.5 1.5 
695 0 23.5 1 1.5 
696 0 23.5 1.5 1 
697 0 24 1 1 
698 0 24 1.5 1.5 
699 0 24.5 1 1.5 
700 1 24.5 1.5 1 
701 0 0 2 1 
702 3 0 2.5 1.5 
703 0 0.5 2 1.5 
704 1 0.5 2.5 1 
705 1 1 2 1 
706 1 1 2.5 1.5 
707 0 1.5 2 1.5 
708 3 1.5 2.5 1 
709 0 2 2 1 
710 2 2 2.5 1.5 
711 0 2.5 2 1.5 
712 0 2.5 2.5 1 
713 1 3 2 1 
714 1 3 2.5 1.5 
715 1 3.5 2 1.5 
716 3 3.5 2.5 1 
717 0 4 2 1 
718 0 4 2.5 1.5 
719 3 4.5 2 1.5 
720 1 4.5 2.5 1 
721 3 5 2 1 
722 0 5 2.5 1.5 
723 0 5.5 2 1.5 
724 1 5.5 2.5 1 
725 0 6 2 1 
726 3 6 2.5 1.5 
727 0 6.5 2 1.5 
728 0 6.5 2.5 1 
729 1 7 2 1 
730 0 7 2.5 1.5 
731 0 7.5 2 1.5 
732 0 7.5 2.5 1 
733 1 8 2 1 
734 1 8 2.5 1.5 
735 3 8.5 2 1.5 
736 0 8.5 2.5 1 
737 0 9 2 1 
738 0 9 2.5 1.5 
739 0 9.5 2 1.5 
740 0 9.5 2.5 1 
741 0 10 2 1 
742 0 10 2.5 1.5 
743 1 10.5 2 1.5 
744 0 10.5 2.5 1 
745 0 11 2 1 
746 0 11 2.5 1.5 
747 0 11.5 2 1.5 
748 3 11.5 2.5 1 
749 0 12 2 1 
750 0 12 2.5 1.5 
751 1 12.5 2 1.5 
752 0 12.5 2.5 1 
753 0 13 2 1 
754 0 13 2.5 1.5 
755 1 13.5 2 1.5 
756 3 13.5 2.5 1 
757 0 14 2 1 
758 1 14 2.5 1.5 
759 0 14.5 2 1.5 
760 0 14.5 2.5 1 
761 0 15 2 1 
762 1 15 2.5 1.5 
763 1 15.5 2 1.5 
764 0 15.5 2.5 1 
765 2 16 2 1 
766 0 16 2.5 1.5 
767 1 16.5 2 1.5 
768 1 16.5 2.5 1 
769 0 17 2 1 
770 0 17 2.5 1.5 
771 0 17.5 2 1.5 
772 0 17.5 2.5 1 
773 0 18 2 1 
774 1 18 2.5 1.5 
775 3 18.5 2 1.5 
776 1 18.5 2.5 1 
777 1 19 2 1 
778 0 19 2.5 1.5 
779 0 19.5 2 1.5 
780 0 19.5 2.5 1 
781 0 20 2 1 
782 0 20 2.5 1.5 
783 1 20.5 2 1.5 
784 0 20.5 2.5 1 
785 3 21 2 1 
786 1 21 2.5 1.5 
787 1 21.5 2 1.5 
788 0 21.5 2.5 1 
789 0 22 2 1 
790 0 22 2.5 1.5 
791 1 22.5 2 1.5 
792 1 22.5 2.5 1 
793 0 23 2 1 
794 1 23 2.5 1.5 
795 0 23.5 2 1.5 
796 2 23.5 2.5 1 
797 2 24 2 1 
798 1 24 2.5 1.5 
799 0 24.5 2 1.5 
800 1 24.5 2.5 1 
801 3 0 3 1 
802 1 0 3.5 1.5 
803 1 0.5 3 1.5 
804 0 0.5 3.5 1 
805 3 1 3 1 
806 0 1 3.5 1.5 
807 0 1.5 3 1.5 
808 1 1.5 3.5 1 
809 3 2 3 1 
810 2 2 3.5 1.5 
811 1 2.5 3 1.5 
812 2 2.5 3.5 1 
813 1 3 3 1 
814 0 3 3.5 1.5 
815 0 3.5 3 1.5 
816 0 3.5 3.5 1 
817 0 4 3 1 
818 0 4 3.5 1.5 
819 1 4.5 3 1.5 
820 0 4.5 3.5 1 
821 1 5 3 1 
822 0 5 3.5 1.5 
823 0 5.5 3 1.5 
824 0 5.5 3.5 1 
825 0 6 3 1 
826 1 6 3.5 1.5 
827 0 6.5 3 1.5 
828 1 6.5 3.5 1 
829 1 7 3 1 
830 0 7 3.5 1.5 
831 1 7.5 3 1.5 
832 0 7.5 3.5 1 
833 0 8 3 1 
834 0 8 3.5 1.5 
835 1 8.5 3 1.5 
836 1 8.5 3.5 1 
837 0 9 3 1 
838 0 9 3.5 1.5 
839 0 9.5 3 1.5 
840 1 9.5 3.5 1 
841 1 10 3 1 
842 1 10 3.5 1.5 
843 0 10.5 3 1.5 
844 0 10.5 3.5 1 
845 0 11 3 1 
846 0 11 3.5 1.5 
847 0 11.5 3 1.5 
848 0 11.5 3.5 1 
849 1 12 3 1 
850 1 12 3.5 1.5 
851 0 12.5 3 1.5 
852 0 12.5 3.5 1 
853 0 13 3 1 
854 0 13 3.5 1.5 
855 1 13.5 3 1.5 
856 0 13.5 3.5 1 
857 1 14 3 1 
858 0 14 3.5 1.5 
859 0 14.5 3 1.5 
860 1 14.5 3.5 1 
861 0 15 3 1 
862 0 15 3.5 1.5 
863 0 15.5 3 1.5 
864 1 15.5 3.5 1 
865 0 16 3 1 
866 1 16 3.5 1.5 
867 1 16.5 3 1.5 
868 0 16.5 3.5 1 
869 0 17 3 1 
870 0 17 3.5 1.5 
871 0 17.5 3 1.5 
872 0 17.5 3.5 1 
873 1 18 3 1 
874 2 18 3.5 1.5 
875 0 18.5 3 1.5 
876 3 18.5 3.5 1 
877 0 19 3 1 
878 1 19 3.5 1.5 
879 0 19.5 3 1.5 
880 0 19.5 3.5 1 
881 0 20 3 1 
882 0 20 3.5 1.5 
883 0 20.5 3 1.5 
884 3 20.5 3.5 1 
885 0 21 3 1 
886 0 21 3.5 1.5 
887 0 21.5 3 1.5 
888 0 21.5 3.5 1 
889 0 22 3 1 
890 1 22 3.5 1.5 
891 0 22.5 3 1.5 
892 1 22.5 3.5 1 
893 0 23 3 1 
894 0 23 3.5 1.5 
895 1 23.5 3 1.5 
896 0 23.5 3.5 1 
897 1 24 3 1 
898 0 24 3.5 1.5 
899 0 24.5 3 1.5 
900 3 24.5 3.5 1 
901 0 0 4 1 
902 0 0 4.5 1.5 
903 0 0.5 4 1.5 
904 0 0.5 4.5 1 
905 0 1 4 1 
906 0 1 4.5 1.5 
907 1 1.5 4 1.5 
908 0 1.5 4.5 1 
909 0 2 4 1 
910 0 2 4.5 1.5 
911 1 2.5 4 1.5 
912 1 2.5 4.5 1 
913 3 3 4 1 
914 0 3 4.5 1.5 
915 0 3.5 4 1.5 
916 1 3.5 4.5 1 
917 0 4 4 1 
918 3 4 4.5 1.5 
919 0 4.5 4 1.5 
920 0 4.5 4.5 1 
921 1 5 4 1 
922 0 5 4.5 1.5 
923 1 5.5 4 1.5 
924 3 5.5 4.5 1 
925 0 6 4 1 
926 0 6 4.5 1.5 
927 0 6.5 4 1.5 
928 0 6.5 4.5 1 
929 2 7 4 1 
930 1 7 4.5 1.5 
931 0 7.5 4 1.5 
932 0 7.5 4.5 1 
933 0 8 4 1 
934 0 8 4.5 1.5 
935 0 8.5 4 1.5 
936 1 8.5 4.5 1 
937 0 9 4 1 
938 1 9 4.5 1.5 
939 0 9.5 4 1.5 
940 0 9.5 4.5 1 
941 0 10 4 1 
942 0 10 4.5 1.5 
943 0 10.5 4 1.5 
944 0 10.5 4.5 1 
945 0 11 4 1 
946 0 11 4.5 1.5 
947 0 11.5 4 1.5 
948 0 11.5 4.5 1 
949 1 12 4 1 
950 0 12 4.5 1.5 
951 1 12.5 4 1.5 
952 1 12.5 4.5 1 
953 3 13 4 1 
954 0 13 4.5 1.5 
955 1 13.5 4 1.5 
956 0 13.5 4.5 1 
957 0 14 4 1 
958 0 14 4.5 1.5 
959 0 14.5 4 1.5 
960 0 14.5 4.5 1 
961 0 15 4 1 
962 0 15 4.5 1.5 
963 0 15.5 4 1.5 
964 1 15.5 4.5 1 
965 0 16 4 1 
966 0 16 4.5 1.5 
967 0 16.5 4 1.5 
968 0 16.5 4.5 1 
969 0 17 4 1 
970 0 17 4.5 1.5 
971 0 17.5 4 1.5 
972 0 17.5 4.5 1 
973 0 18 4 1 
974 0 18 4.5 1.5 
975 0 18.5 4 1.5 
976 0 18.5 4.5 1 
977 0 19 4 1 
978 0 19 4.5 1.5 
979 0 19.5 4 1.5 
980 0 19.5 4.5 1 
981 0 20 4 1 
982 0 20 4.5 1.5 
983 0 20.5 4 1.5 
984 0 20.5 4.5 1 
985 1 21 4 1 
986 0 21 4.5 1.5 
987 0 21.5 4 1.5 
988 0 21.5 4.5 1 
989 0 22 4 1 
990 1 22 4.5 1.5 
991 1 22.5 4 1.5 
992 0 22.5 4.5 1 
993 1 23 4 1 
994 0 23 4.5 1.5 
995 0 23.5 4 1.5 
996 1 23.5 4.5 1 
997 0 24 4 1 
998 1 24 4.5 1.5 
999 1 24.5 4 1.5 
1000 1 24.5 4.5 1 
1001 2 0 0 2 
1002 0 0 0.5 2.5 
1003 0 0.5 0 2.5 
1004 0 0.5 0.5 2 
1005 2 1 0 2 
1006 0 1 0.5 2.5 
1007 3 1.5 0 2.5 
1008 3 1.5 0.5 2 
1009 0 2 0 2 
1010 1 2 0.5 2.5 
1011 1 2.5 0 2.5 
1012 0 2.5 0.5 2 
1013 0 3 0 2 
1014 0 3 0.5 2.5 
1015 0 3.5 0 2.5 
1016 0 3.5 0.5 2 
1017 0 4 0 2 
1018 0 4 0.5 2.5 
1019 0 4.5 0 2.5 
1020 1 4.5 0.5 2 
1021 0 5 0 2 
1022 0 5 0.5 2.5 
1023 0 5.5 0 2.5 
1024 0 5.5 0.5 2 
1025 3 6 0 2 
1026 0 6 0.5 2.5 
1027 0 6.5 0 2.5 
1028 1 6.5 0.5 2 
1029 0 7 0 2 
1030 0 7 0.5 2.5 
1031 3 7.5 0 2.5 
1032 3 7.5 0.5 2 
1033 0 8 0 2 
1034 0 8 0.5 2.5 
1035 0 8.5 0 2.5 
1036 0 8.5 0.5 2 
1037 0 9 0 2 
1038 0 9 0.5 2.5 
1039 1 9.5 0 2.5 
1040 0 9.5 0.5 2 
1041 1 10 0 2 
1042 1 10 0.5 2.5 
1043 0 10.5 0 2.5 
1044 3 10.5 0.5 2 
1045 0 11 0 2 
1046 0 11 0.5 2.5 
1047 0 11.5 0 2.5 
1048 0 11.5 0.5 2 
1049 2 12 0 2 
1050 0 12 0.5 2.5 
1051 0 12.5 0 2.5 
1052 0 12.5 0.5 2 
1053 0 13 0 2 
1054 1 13 0.5 2.5 
1055 0 13.5 0 2.5 
1056 1 13.5 0.5 2 
1057 0 14 0 2 
1058 0 14 0.5 2.5 
1059 1 14.5 0 2.5 
1060 1 14.5 0.5 2 
1061 0 15 0 2 
1062 3 15 0.5 2.5 
1063 0 15.5 0 2.5 
1064 1 15.5 0.5 2 
1065 0 16 0 2 
1066 0 16 0.5 2.5 
1067 0 16.5 0 2.5 
1068 0 16.5 0.5 2 
1069 0 17 0 2 
1070 0 17 0.5 2.5 
1071 0 17.5 0 2.5 
1072 0 17.5 0.5 2 
1073 0 18 0 2 
1074 0 18 0.5 2.5 
1075 0 18.5 0 2.5 
1076 0 18.5 0.5 2 
1077 0 19 0 2 
1078 0 19 0.5 2.5 
1079 0 19.5 0 2.5 
1080 0 19.5 0.5 2 
1081 0 20 0 2 
1082 1 20 0.5 2.5 
1083 1 20.5 0 2.5 
1084 0 20.5 0.5 2 
1085 0 21 0 2 
1086 3 21 0.5 2.5 
1087 1 21.5 0 2.5 
1088 0 21.5 0.5 2 
1089 0 22 0 2 
1090 0 22 0.5 2.5 
1091 1 22.5 0 2.5 
1092 0 22.5 0.5 2 
1093 0 23 0 2 
1094 0 23 0.5 2.5 
1095 0 23.5 0 2.5 
1096 1 23.5 0.5 2 
1097 0 24 0 2 
1098 0 24 0.5 2.5 
1099 0 24.5 0 2.5 
1100 1 24.5 0.5 2 
1101 0 0 1 2 
1102 1 0 1.5 2.5 
1103 1 0.5 1 2.5 
1104 2 0.5 1.5 2 
1105 0 1 1 2 
1106 0 1 1.5 2.5 
1107 1 1.5 1 2.5 
1108 0 1.5 1.5 2 
1109 0 2 1 2 
1110 3 2 1.5 2.5 
1111 0 2.5 1 2.5 
1112 1 2.5 1.5 2 
1113 0 3 1 2 
1114 0 3 1.5 2.5 
1115 0 3.5 1 2.5 
1116 0 3.5 1.5 2 
1117 0 4 1 2 
1118 1 4 1.5 2.5 
1119 0 4.5 1 2.5 
1120 3 4.5 1.5 2 
1121 1 5 1 2 
1122 0 5 1.5 2.5 
1123 0 5.5 1 2.5 
1124 1 5.5 1.5 2 
1125 0 6 1 2 
1126 0 6 1.5 2.5 
1127 0 6.5 1 2.5 
1128 1 6.5 1.5 2 
1129 0 7 1 2 
1130 0 7 1.5 2.5 
1131 0 7.5 1 2.5 
1132 2 7.5 1.5 2 
1133 0 8 1 2 
1134 0 8 1.5 2.5 
1135 0 8.5 1 2.5 
1136 0 8.5 1.5 2 
1137 0 9 1 2 
1138 1 9 1.5 2.5 
1139 0 9.5 1 2.5 
1140 0 9.5 1.5 2 
1141 1 10 1 2 
1142 0 10 1.5 2.5 
1143 0 10.5 1 2.5 
1144 0 10.5 1.5 2 
1145 0 11 1 2 
1146 0 11 1.5 2.5 
1147 1 11.5 1 2.5 
1148 0 11.5 1.5 2 
1149 0 12 1 2 
1150 0 12 1.5 2.5 
1151 1 12.5 1 2.5 
1152 2 12.5 1.5 2 
1153 1 13 1 2 
1154 0 13 1.5 2.5 
1155 0 13.5 1 2.5 
1156 0 13.5 1.5 2 
1157 0 14 1 2 
1158 1 14 1.5 2.5 
1159 1 14.5 1 2.5 
1160 0 14.5 1.5 2 
1161 1 15 1 2 
1162 0 15 1.5 2.5 
1163 1 15.5 1 2.5 
1164 0 15.5 1.5 2 
1165 1 16 1 2 
1166 0 16 1.5 2.5 
1167 0 16.5 1 2.5 
1168 2 16.5 1.5 2 
1169 3 17 1 2 
1170 1 17 1.5 2.5 
1171 0 17.5 1 2.5 
1172 0 17.5 1.5 2 
1173 3 18 1 2 
1174 0 18 1.5 2.5 
1175 0 18.5 1 2.5 
1176 0 18.5 1.5 2 
1177 0 19 1 2 
1178 1 19 1.5 2.5 
1179 0 19.5 1 2.5 
1180 0 19.5 1.5 2 
1181 0 20 1 2 
1182 0 20 1.5 2.5 
1183 0 20.5 1 2.5 
1184 0 20.5 1.5 2 
1185 0 21 1 2 
1186 0 21 1.5 2.5 
1187 3 21.5 1 2.5 
1188 0 21.5 1.5 2 
1189 0 22 1 2 
1190 3 22 1.5 2.5 
1191 0 22.5 1 2.5 
1192 3 22.5 1.5 2 
1193 1 23 1 2 
1194 0 23 1.5 2.5 
1195 1 23.5 1 2.5 
1196 2 23.5 1.5 2 
1197 0 24 1 2 
1198 0 24 1.5 2.5 
1199 0 24.5 1 2.5 
1200 1 24.5 1.5 2 
1201 0 0 2 2 
1202 0 0 2.5 2.5 
1203 0 0.5 2 2.5 
1204 3 0.5 2.5 2 
1205 0 1 2 2 
1206 1 1 2.5 2.5 
1207 1 1.5 2 2.5 
1208 0 1.5 2.5 2 
1209 0 2 2 2 
1210 0 2 2.5 2.5 
1211 3 2.5 2 2.5 
1212 0 2.5 2.5 2 
1213 1 3 2 2 
1214 0 3 2.5 2.5 
1215 0 3.5 2 2.5 
1216 0 3.5 2.5 2 
1217 0 4 2 2 
1218 0 4 2.5 2.5 
1219 0 4.5 2 2.5 
1220 0 4.5 2.5 2 
1221 0 5 2 2 
1222 1 5 2.5 2.5 
1223 0 5.5 2 2.5 
1224 0 5.5 2.5 2 
1225 0 6 2 2 
1226 0 6 2.5 2.5 
1227 0 6.5 2 2.5 
1228 0 6.5 2.5 2 
1229 3 7 2 2 
1230 0 7 2.5 2.5 
1231 1 7.5 2 2.5 
1232 0 7.5 2.5 2 
1233 1 8 2 2 
1234 0 8 2.5 2.5 
1235 0 8.5 2 2.5 
1236 0 8.5 2.5 2 
1237 0 9 2 2 
1238 1 9 2.5 2.5 
1239 0 9.5 2 2.5 
1240 0 9.5 2.5 2 
1241 0 10 2 2 
1242 1 10 2.5 2.5 
1243 0 10.5 2 2.5 
1244 1 10.5 2.5 2 
1245 0 11 2 2 
1246 0 11 2.5 2.5 
1247 1 11.5 2 2.5 
1248 0 11.5 2.5 2 
1249 0 12 2 2 
1250 0 12 2.5 2.5 
1251 2 12.5 2 2.5 
1252 3 12.5 2.5 2 
1253 0 13 2 2 
1254 1 13 2.5 2.5 
1255 0 13.5 2 2.5 
1256 0 13.5 2.5 2 
1257 0 14 2 2 
1258 0 14 2.5 2.5 
1259 1 14.5 2 2.5 
1260 3 14.5 2.5 2 
1261 0 15 2 2 
1262 3 15 2.5 2.5 
1263 0 15.5 2 2.5 
1264 0 15.5 2.5 2 
1265 1 16 2 2 
1266 3 16 2.5 2.5 
1267 0 16.5 2 2.5 
1268 0 16.5 2.5 2 
1269 0 17 2 2 
1270 0 17 2.5 2.5 
1271 1 17.5 2 2.5 
1272 0 17.5 2.5 2 
1273 0 18 2 2 
1274 0 18 2.5 2.5 
1275 0 18.5 2 2.5 
1276 3 18.5 2.5 2 
1277 0 19 2 2 
1278 1 19 2.5 2.5 
1279 0 19.5 2 2.5 
1280 0 19.5 2.5 2 
1281 0 20 2 2 
1282 3 20 2.5 2.5 
1283 0 20.5 2 2.5 
1284 3 20.5 2.5 2 
1285 0 21 2 2 
1286 0 21 2.5 2.5 
1287 0 21.5 2 2.5 
1288 1 21.5 2.5 2 
1289 0 22 2 2 
1290 0 22 2.5 2.5 
1291 3 22.5 2 2.5 
1292 0 22.5 2.5 2 
1293 0 23 2 2 
1294 0 23 2.5 2.5 
1295 0 23.5 2 2.5 
1296 1 23.5 2.5 2 
1297 0 24 2 2 
1298 1 24 2.5 2.5 
1299 0 24.5 2 2.5 
1300 0 24.5 2.5 2 
1301 0 0 3 2 
1302 0 0 3.5 2.5 
1303 0 0.5 3 2.5 
1304 0 0.5 3.5 2 
1305 0 1 3 2 
1306 0 1 3.5 2.5 
1307 0 1.5 3 2.5 
1308 0 1.5 3.5 2 
1309 3 2 3 2 
1310 1 2 3.5 2.5 
1311 1 2.5 3 2.5 
1312 0 2.5 3.5 2 
1313 0 3 3 2 
1314 0 3 3.5 2.5 
1315 1 3.5 3 2.5 
1316 0 3.5 3.5 2 
1317 3 4 3 2 
1318 0 4 3.5 2.5 
1319 1 4.5 3 2.5 
1320 0 4.5 3.5 2 
1321 0 5 3 2 
1322 0 5 3.5 2.5 
1323 0 5.5 3 2.5 
1324 0 5.5 3.5 2 
1325 0 6 3 2 
1326 1 6 3.5 2.5 
1327 1 6.5 3 2.5 
1328 0 6.5 3.5 2 
1329 0 7 3 2 
1330 0 7 3.5 2.5 
1331 0 7.5 3 2.5 
1332 1 7.5 3.5 2 
1333 3 8 3 2 
1334 1 8 3.5 2.5 
1335 0 8.5 3 2.5 
1336 1 8.5 3.5 2 
1337 1 9 3 2 
1338 0 9 3.5 2.5 
1339 0 9.5 3 2.5 
1340 0 9.5 3.5 2 
1341 0 10 3 2 
1342 0 10 3.5 2.5 
1343 1 10.5 3 2.5 
1344 0 10.5 3.5 2 
1345 0 11 3 2 
1346 0 11 3.5 2.5 
1347 1 11.5 3 2.5 
1348 0 11.5 3.5 2 
1349 0 12 3 2 
1350 0 12 3.5 2.5 
1351 0 12.5 3 2.5 
1352 1 12.5 3.5 2 
1353 0 13 3 2 
1354 0 13 3.5 2.5 
1355 0 13.5 3 2.5 
1356 0 13.5 3.5 2 
1357 1 14 3 2 
1358 1 14 3.5 2.5 
1359 1 14.5 3 2.5 
1360 3 14.5 3.5 2 
1361 0 15 3 2 
1362 0 15 3.5 2.5 
1363 0 15.5 3 2.5 
1364 0 15.5 3.5 2 
1365 0 16 3 2 
1366 2 16 3.5 2.5 
1367 0 16.5 3 2.5 
1368 1 16.5 3.5 2 
1369 0 17 3 2 
1370 1 17 3.5 2.5 
1371 0 17.5 3 2.5 
1372 0 17.5 3.5 2 
1373 1 18 3 2 
1374 0 18 3.5 2.5 
1375 0 18.5 3 2.5 
1376 0 18.5 3.5 2 
1377 0 19 3 2 
1378 0 19 3.5 2.5 
1379 3 19.5 3 2.5 
1380 1 19.5 3.5 2 
1381 0 20 3 2 
1382 0 20 3.5 2.5 
1383 1 20.5 3 2.5 
1384 0 20.5 3.5 2 
1385 0 21 3 2 
1386 0 21 3.5 2.5 
1387 0 21.5 3 2.5 
1388 0 21.5 3.5 2 
1389 0 22 3 2 
1390 0 22 3.5 2.5 
1391 0 22.5 3 2.5 
1392 3 22.5 3.5 2 
1393 1 23 3 2 
1394 1 23 3.5 2.5 
1395 1 23.5 3 2.5 
1396 2 23.5 3.5 2 
1397 0 24 3 2 
1398 1 24 3.5 2.5 
1399 1 24.5 3 2.5 
1400 3 24.5 3.5 2 
1401 0 0 4 2 
1402 0 0 4.5 2.5 
1403 0 0.5 4 2.5 
1404 3 0.5 4.5 2 
1405 0 1 4 2 
1406 1 1 4.5 2.5 
1407 1 1.5 4 2.5 
1408 0 1.5 4.5 2 
1409 0 2 4 2 
1410 0 2 4.5 2.5 
1411 1 2.5 4 2.5 
1412 0 2.5 4.5 2 
1413 0 3 4 2 
1414 3 3 4.5 2.5 
1415 0 3.5 4 2.5 
1416 0 3.5 4.5 2 
1417 0 4 4 2 
1418 1 4 4.5 2.5 
1419 0 4.5 4 2.5 
1420 0 4.5 4.5 2 
1421 0 5 4 2 
1422 1 5 4.5 2.5 
1423 1 5.5 4 2.5 
1424 0 5.5 4.5 2 
1425 0 6 4 2 
1426 1 6 4.5 2.5 
1427 0 6.5 4 2.5 
1428 0 6.5 4.5 2 
1429 0 7 4 2 
1430 1 7 4.5 2.5 
1431 0 7.5 4 2.5 
1432 3 7.5 4.5 2 
1433 1 8 4 2 
1434 0 8 4.5 2.5 
1435 1 8.5 4 2.5 
1436 1 8.5 4.5 2 
1437 0 9 4 2 
1438 1 9 4.5 2.5 
1439 0 9.5 4 2.5 
1440 0 9.5 4.5 2 
1441 3 10 4 2 
1442 1 10 4.5 2.5 
1443 1 10.5 4 2.5 
1444 1 10.5 4.5 2 
1445 0 11 4 2 
1446 0 11 4.5 2.5 
1447 0 11.5 4 2.5 
1448 0 11.5 4.5 2 
1449 0 12 4 2 
1450 0 12 4.5 2.5 
1451 0 12.5 4 2.5 
1452 0 12.5 4.5 2 
1453 0 13 4 2 
1454 0 13 4.5 2.5 
1455 0 13.5 4 2.5 
1456 2 13.5 4.5 2 
1457 1 14 4 2 
1458 0 14 4.5 2.5 
1459 1 14.5 4 2.5 
1460 0 14.5 4.5 2 
1461 0 15 4 2 
1462 0 15 4.5 2.5 
1463 0 15.5 4 2.5 
1464 3 15.5 4.5 2 
1465 1 16 4 2 
1466 0 16 4.5 2.5 
1467 0 16.5 4 2.5 
1468 0 16.5 4.5 2 
1469 0 17 4 2 
1470 1 17 4.5 2.5 
1471 1 17.5 4 2.5 
1472 1 17.5 4.5 2 
1473 0 18 4 2 
1474 3 18 4.5 2.5 
1475 0 18.5 4 2.5 
1476 0 18.5 4.5 2 
1477 0 19 4 2 
1478 0 19 4.5 2.5 
1479 0 19.5 4 2.5 
1480 3 19.5 4.5 2 
1481 0 20 4 2 
1482 1 20 4.5 2.5 
1483 1 20.5 4 2.5 
1484 0 20.5 4.5 2 
1485 0 21 4 2 
1486 0 21 4.5 2.5 
1487 0 21.5 4 2.5 
1488 0 21.5 4.5 2 
1489 0 22 4 2 
1490 0 22 4.5 2.5 
1491 0 22.5 4 2.5 
1492 1 22.5 4.5 2 
1493 0 23 4 2 
1494 0 23 4.5 2.5 
1495 1 23.5 4 2.5 
1496 1 23.5 4.5 2 
1497 3 24 4 2 
1498 3 24 4.5 2.5 
1499 0 24.5 4 2.5 
1500 1 24.5 4.5 2 
1501 0 0 0 3 
1502 0 0 0.5 3.5 
1503 3 0.5 0 3.5 
1504 0 0.5 0.5 3 
1505 2 1 0 3 
1506 2 1 0.5 3.5 
1507 0 1.5 0 3.5 
1508 0 1.5 0.5 3 
1509 0 2 0 3 
1510 1 2 0.5 3.5 
1511 0 2.5 0 3.5 
1512 0 2.5 0.5 3 
1513 1 3 0 3 
1514 0 3 0.5 3.5 
1515 1 3.5 0 3.5 
1516 0 3.5 0.5 3 
1517 0 4 0 3 
1518 0 4 0.5 3.5 
1519 0 4.5 0 3.5 
1520 3 4.5 0.5 3 
1521 1 5 0 3 
1522 0 5 0.5 3.5 
1523 0 5.5 0 3.5 
1524 1 5.5 0.5 3 
1525 1 6 0 3 
1526 0 6 0.5 3.5 
1527 0 6.5 0 3.5 
1528 0 6.5 0.5 3 
1529 3 7 0 3 
1530 0 7 0.5 3.5 
1531 0 7.5 0 3.5 
1532 0 7.5 0.5 3 
1533 0 8 0 3 
1534 0 8 0.5 3.5 
1535 1 8.5 0 3.5 
1536 1 8.5 0.5 3 
1537 2 9 0 3 
1538 0 9 0.5 3.5 
1539 1 9.5 0 3.5 
1540 1 9.5 0.5 3 
1541 0 10 0 3 
1542 2 10 0.5 3.5 
1543 3 10.5 0 3.5 
1544 0 10.5 0.5 3 
1545 0 11 0 3 
1546 0 11 0.5 3.5 
1547 0 11.5 0 3.5 
1548 0 11.5 0.5 3 
1549 0 12 0 3 
1550 0 12 0.5 3.5 
1551 0 12.5 0 3.5 
1552 0 12.5 0.5 3 
1553 1 13 0 3 
1554 0 13 0.5 3.5 
1555 0 13.5 0 3.5 
1556 0 13.5 0.5 3 
1557 0 14 0 3 
1558 0 14 0.5 3.5 
1559 0 14.5 0 3.5 
1560 0 14.5 0.5 3 
1561 0 15 0 3 
1562 0 15 0.5 3.5 
1563 0 15.5 0 3.5 
1564 0 15.5 0.5 3 
1565 1 16 0 3 
1566 0 16 0.5 3.5 
1567 0 16.5 0 3.5 
1568 1 16.5 0.5 3 
1569 1 17 0 3 
1570 0 17 0.5 3.5 
1571 1 17.5 0 3.5 
1572 0 17.5 0.5 3 
1573 1 18 0 3 
1574 3 18 0.5 3.5 
1575 0 18.5 0 3.5 
1576 1 18.5 0.5 3 
1577 3 19 0 3 
1578 0 19 0.5 3.5 
1579 0 19.5 0 3.5 
1580 1 19.5 0.5 3 
1581 0 20 0 3 
1582 1 20 0.5 3.5 
1583 0 20.5 0 3.5 
1584 0 20.5 0.5 3 
1585 3 21 0 3 
1586 0 21 0.5 3.5 
1587 1 21.5 0 3.5 
1588 0 21.5 0.5 3 
1589 0 22 0 3 
1590 0 22 0.5 3.5 
1591 2 22.5 0 3.5 
1592 1 22.5 0.5 3 
1593 0 23 0 3 
1594 0 23 0.5 3.5 
1595 3 23.5 0 3.5 
1596 0 23.5 0.5 3 
1597 0 24 0 3 
1598 0 24 0.5 3.5 
1599 1 24.5 0 3.5 
1600 1 24.5 0.5 3 
1601 0 0 1 3 
1602 0 0 1.5 3.5 
1603 0 0.5 1 3.5 
1604 0 0.5 1.5 3 
1605 0 1 1 3 
1606 0 1 1.5 3.5 
1607 0 1.5 1 3.5 
1608 0 1.5 1.5 3 
1609 1 2 1 3 
1610 0 2 1.5 3.5 
1611 3 2.5 1 3.5 
1612 0 2.5 1.5 3 
1613 1 3 1 3 
1614 0 3 1.5 3.5 
1615 0 3.5 1 3.5 
1616 0 3.5 1.5 3 
1617 0 4 1 3 
1618 0 4 1.5 3.5 
1619 0 4.5 1 3.5 
1620 0 4.5 1.5 3 
1621 0 5 1 3 
1622 3 5 1.5 3.5 
1623 0 5.5 1 3.5 
1624 0 5.5 1.5 3 
1625 0 6 1 3 
1626 0 6 1.5 3.5 
1627 0 6.5 1 3.5 
1628 0 6.5 1.5 3 
1629 1 7 1 3 
1630 0 7 1.5 3.5 
1631 0 7.5 1 3.5 
1632 0 7.5 1.5 3 
1633 0 8 1 3 
1634 0 8 1.5 3.5 
1635 0 8.5 1 3.5 
1636 3 8.5 1.5 3 
1637 0 9 1 3 
1638 0 9 1.5 3.5 
1639 0 9.5 1 3.5 
1640 0 9.5 1.5 3 
1641 0 10 1 3 
1642 0 10 1.5 3.5 
1643 1 10.5 1 3.5 
1644 3 10.5 1.5 3 
1645 0 11 1 3 
1646 3 11 1.5 3.5 
1647 0 11.5 1 3.5 
1648 0 11.5 1.5 3 
1649 3 12 1 3 
1650 0 12 1.5 3.5 
1651 0 12.5 1 3.5 
1652 3 12.5 1.5 3 
1653 0 13 1 3 
1654 0 13 1.5 3.5 
1655 1 13.5 1 3.5 
1656 0 13.5 1.5 3 
1657 0 14 1 3 
1658 1 14 1.5 3.5 
1659 0 14.5 1 3.5 
1660 3 14.5 1.5 3 
1661 0 15 1 3 
1662 0 15 1.5 3.5 
1663 0 15.5 1 3.5 
1664 0 15.5 1.5 3 
1665 0 16 1 3 
1666 0 16 1.5 3.5 
1667 0 16.5 1 3.5 
1668 3 16.5 1.5 3 
1669 0 17 1 3 
1670 0 17 1.5 3.5 
1671 0 17.5 1 3.5 
1672 0 17.5 1.5 3 
1673 0 18 1 3 
1674 0 18 1.5 3.5 
1675 0 18.5 1 3.5 
1676 3 18.5 1.5 3 
1677 0 19 1 3 
1678 1 19 1.5 3.5 
1679 1 19.5 1 3.5 
1680 3 19.5 1.5 3 
1681 2 20 1 3 
1682 0 20 1.5 3.5 
1683 3 20.5 1 3.5 
1684 1 20.5 1.5 3 
1685 0 21 1 3 
1686 0 21 1.5 3.5 
1687 0 21.5 1 3.5 
1688 0 21.5 1.5 3 
1689 0 22 1 3 
1690 2 22 1.5 3.5 
1691 0 22.5 1 3.5 
1692 0 22.5 1.5 3 
1693 0 23 1 3 
1694 0 23 1.5 3.5 
1695 0 23.5 1 3.5 
1696 0 23.5 1.5 3 
1697 3 24 1 3 
1698 0 24 1.5 3.5 
1699 1 24.5 1 3.5 
1700 0 24.5 1.5 3 
1701 3 0 2 3 
1702 0 0 2.5 3.5 
1703 0 0.5 2 3.5 
1704 1 0.5 2.5 3 
1705 0 1 2 3 
1706 0 1 2.5 3.5 
1707 1 1.5 2 3.5 
1708 0 1.5 2.5 3 
1709 0 2 2 3 
1710 0 2 2.5 3.5 
1711 1 2.5 2 3.5 
1712 3 2.5 2.5 3 
1713 1 3 2 3 
1714 0 3 2.5 3.5 
1715 0 3.5 2 3.5 
1716 0 3.5 2.5 3 
1717 3 4 2 3 
1718 0 4 2.5 3.5 
1719 0 4.5 2 3.5 
1720 1 4.5 2.5 3 
1721 1 5 2 3 
1722 0 5 2.5 3.5 
1723 3 5.5 2 3.5 
1724 1 5.5 2.5 3 
1725 1 6 2 3 
1726 0 6 2.5 3.5 
1727 0 6.5 2 3.5 
1728 1 6.5 2.5 3 
1729 0 7 2 3 
1730 0 7 2.5 3.5 
1731 0 7.5 2 3.5 
1732 0 7.5 2.5 3 
1733 0 8 2 3 
1734 0 8 2.5 3.5 
1735 1 8.5 2 3.5 
1736 0 8.5 2.5 3 
1737 1 9 2 3 
1738 0 9 2.5 3.5 
1739 0 9.5 2 3.5 
1740 0 9.5 2.5 3 
1741 0 10 2 3 
1742 1 10 2.5 3.5 
1743 0 10.5 2 3.5 
1744 3 10.5 2.5 3 
1745 0 11 2 3 
1746 0 11 2.5 3.5 
1747 3 11.5 2 3.5 
1748 1 11.5 2.5 3 
1749 0 12 2 3 
1750 0 12 2.5 3.5 
1751 0 12.5 2 3.5 
1752 0 12.5 2.5 3 
1753 1 13 2 3 
1754 1 13 2.5 3.5 
1755 0 13.5 2 3.5 
1756 1 13.5 2.5 3 
1757 0 14 2 3 
1758 0 14 2.5 3.5 
1759 0 14.5 2 3.5 
1760 1 14.5 2.5 3 
1761 0 15 2 3 
1762 0 15 2.5 3.5 