ITEM: TIMESTEP
0          0
ITEM: NUMBER OF ATOMS
15000
ITEM: BOX BOUNDS
0 50
0 100
0 3
ITEM: ATOMS id type x y z
1 1 0 0 0 
2 1 1 0 0 
3 1 2 0 0 
4 1 3 0 0 
5 1 4 0 0 
6 1 5 0 0 
7 1 6 0 0 
8 1 7 0 0 
9 1 8 0 0 
10 1 9 0 0 
11 1 10 0 0 
12 1 11 0 0 
13 1 12 0 0 
14 1 13 0 0 
15 1 14 0 0 
16 1 15 0 0 
17 1 16 0 0 
18 1 17 0 0 
19 1 18 0 0 
20 1 19 0 0 
21 1 20 0 0 
22 1 21 0 0 
23 1 22 0 0 
24 1 23 0 0 
25 1 24 0 0 
26 1 25 0 0 
27 1 26 0 0 
28 1 27 0 0 
29 1 28 0 0 
30 1 29 0 0 
31 1 30 0 0 
32 1 31 0 0 
33 1 32 0 0 
34 1 33 0 0 
35 1 34 0 0 
36 1 35 0 0 
37 1 36 0 0 
38 1 37 0 0 
39 1 38 0 0 
40 1 39 0 0 
41 1 40 0 0 
42 1 41 0 0 
43 1 42 0 0 
44 1 43 0 0 
45 1 44 0 0 
46 1 45 0 0 
47 1 46 0 0 
48 1 47 0 0 
49 1 48 0 0 
50 1 49 0 0 
51 1 0 1 0 
52 1 1 1 0 
53 1 2 1 0 
54 1 3 1 0 
55 1 4 1 0 
56 1 5 1 0 
57 1 6 1 0 
58 1 7 1 0 
59 1 8 1 0 
60 1 9 1 0 
61 1 10 1 0 
62 1 11 1 0 
63 1 12 1 0 
64 1 13 1 0 
65 1 14 1 0 
66 1 15 1 0 
67 1 16 1 0 
68 1 17 1 0 
69 1 18 1 0 
70 1 19 1 0 
71 1 20 1 0 
72 1 21 1 0 
73 1 22 1 0 
74 1 23 1 0 
75 1 24 1 0 
76 1 25 1 0 
77 1 26 1 0 
78 1 27 1 0 
79 1 28 1 0 
80 1 29 1 0 
81 1 30 1 0 
82 1 31 1 0 
83 1 32 1 0 
84 1 33 1 0 
85 1 34 1 0 
86 1 35 1 0 
87 1 36 1 0 
88 1 37 1 0 
89 1 38 1 0 
90 1 39 1 0 
91 1 40 1 0 
92 1 41 1 0 
93 1 42 1 0 
94 1 43 1 0 
95 1 44 1 0 
96 1 45 1 0 
97 1 46 1 0 
98 1 47 1 0 
99 1 48 1 0 
100 1 49 1 0 
101 2 0 2 0 
102 2 1 2 0 
103 2 2 2 0 
104 2 3 2 0 
105 2 4 2 0 
106 2 5 2 0 
107 2 6 2 0 
108 2 7 2 0 
109 2 8 2 0 
110 2 9 2 0 
111 2 10 2 0 
112 2 11 2 0 
113 2 12 2 0 
114 2 13 2 0 
115 2 14 2 0 
116 2 15 2 0 
117 2 16 2 0 
118 2 17 2 0 
119 2 18 2 0 
120 2 19 2 0 
121 2 20 2 0 
122 2 21 2 0 
123 2 22 2 0 
124 2 23 2 0 
125 2 24 2 0 
126 2 25 2 0 
127 2 26 2 0 
128 2 27 2 0 
129 2 28 2 0 
130 2 29 2 0 
131 2 30 2 0 
132 2 31 2 0 
133 2 32 2 0 
134 2 33 2 0 
135 2 34 2 0 
136 2 35 2 0 
137 2 36 2 0 
138 2 37 2 0 
139 2 38 2 0 
140 2 39 2 0 
141 2 40 2 0 
142 2 41 2 0 
143 2 42 2 0 
144 2 43 2 0 
145 2 44 2 0 
146 2 45 2 0 
147 2 46 2 0 
148 2 47 2 0 
149 2 48 2 0 
150 3 49 2 0 
151 2 0 3 0 
152 2 1 3 0 
153 2 2 3 0 
154 2 3 3 0 
155 2 4 3 0 
156 2 5 3 0 
157 2 6 3 0 
158 2 7 3 0 
159 2 8 3 0 
160 2 9 3 0 
161 2 10 3 0 
162 2 11 3 0 
163 2 12 3 0 
164 2 13 3 0 
165 2 14 3 0 
166 2 15 3 0 
167 2 16 3 0 
168 2 17 3 0 
169 2 18 3 0 
170 2 19 3 0 
171 2 20 3 0 
172 2 21 3 0 
173 2 22 3 0 
174 2 23 3 0 
175 2 24 3 0 
176 2 25 3 0 
177 2 26 3 0 
178 2 27 3 0 
179 2 28 3 0 
180 2 29 3 0 
181 2 30 3 0 
182 2 31 3 0 
183 2 32 3 0 
184 2 33 3 0 
185 2 34 3 0 
186 2 35 3 0 
187 2 36 3 0 
188 2 37 3 0 
189 2 38 3 0 
190 2 39 3 0 
191 2 40 3 0 
192 2 41 3 0 
193 2 42 3 0 
194 2 43 3 0 
195 2 44 3 0 
196 2 45 3 0 
197 2 46 3 0 
198 2 47 3 0 
199 2 48 3 0 
200 3 49 3 0 
201 2 0 4 0 
202 2 1 4 0 
203 2 2 4 0 
204 2 3 4 0 
205 2 4 4 0 
206 2 5 4 0 
207 2 6 4 0 
208 2 7 4 0 
209 2 8 4 0 
210 2 9 4 0 
211 2 10 4 0 
212 2 11 4 0 
213 2 12 4 0 
214 2 13 4 0 
215 2 14 4 0 
216 2 15 4 0 
217 2 16 4 0 
218 2 17 4 0 
219 2 18 4 0 
220 2 19 4 0 
221 2 20 4 0 
222 2 21 4 0 
223 2 22 4 0 
224 2 23 4 0 
225 2 24 4 0 
226 2 25 4 0 
227 2 26 4 0 
228 2 27 4 0 
229 2 28 4 0 
230 2 29 4 0 
231 2 30 4 0 
232 2 31 4 0 
233 2 32 4 0 
234 2 33 4 0 
235 2 34 4 0 
236 2 35 4 0 
237 2 36 4 0 
238 2 37 4 0 
239 2 38 4 0 
240 2 39 4 0 
241 2 40 4 0 
242 2 41 4 0 
243 2 42 4 0 
244 2 43 4 0 
245 2 44 4 0 
246 2 45 4 0 
247 2 46 4 0 
248 2 47 4 0 
249 2 48 4 0 
250 3 49 4 0 
251 2 0 5 0 
252 2 1 5 0 
253 2 2 5 0 
254 2 3 5 0 
255 2 4 5 0 
256 2 5 5 0 
257 2 6 5 0 
258 2 7 5 0 
259 2 8 5 0 
260 2 9 5 0 
261 2 10 5 0 
262 2 11 5 0 
263 2 12 5 0 
264 2 13 5 0 
265 2 14 5 0 
266 2 15 5 0 
267 2 16 5 0 
268 2 17 5 0 
269 2 18 5 0 
270 2 19 5 0 
271 2 20 5 0 
272 2 21 5 0 
273 2 22 5 0 
274 2 23 5 0 
275 2 24 5 0 
276 2 25 5 0 
277 2 26 5 0 
278 2 27 5 0 
279 2 28 5 0 
280 2 29 5 0 
281 2 30 5 0 
282 2 31 5 0 
283 2 32 5 0 
284 2 33 5 0 
285 2 34 5 0 
286 2 35 5 0 
287 2 36 5 0 
288 2 37 5 0 
289 2 38 5 0 
290 2 39 5 0 
291 2 40 5 0 
292 2 41 5 0 
293 2 42 5 0 
294 2 43 5 0 
295 2 44 5 0 
296 2 45 5 0 
297 2 46 5 0 
298 2 47 5 0 
299 2 48 5 0 
300 3 49 5 0 
301 2 0 6 0 
302 2 1 6 0 
303 2 2 6 0 
304 2 3 6 0 
305 2 4 6 0 
306 2 5 6 0 
307 2 6 6 0 
308 2 7 6 0 
309 2 8 6 0 
310 2 9 6 0 
311 2 10 6 0 
312 2 11 6 0 
313 2 12 6 0 
314 2 13 6 0 
315 2 14 6 0 
316 2 15 6 0 
317 2 16 6 0 
318 2 17 6 0 
319 2 18 6 0 
320 2 19 6 0 
321 2 20 6 0 
322 2 21 6 0 
323 2 22 6 0 
324 2 23 6 0 
325 2 24 6 0 
326 2 25 6 0 
327 2 26 6 0 
328 2 27 6 0 
329 2 28 6 0 
330 2 29 6 0 
331 2 30 6 0 
332 2 31 6 0 
333 2 32 6 0 
334 2 33 6 0 
335 2 34 6 0 
336 2 35 6 0 
337 2 36 6 0 
338 2 37 6 0 
339 2 38 6 0 
340 2 39 6 0 
341 2 40 6 0 
342 2 41 6 0 
343 2 42 6 0 
344 2 43 6 0 
345 2 44 6 0 
346 2 45 6 0 
347 2 46 6 0 
348 2 47 6 0 
349 2 48 6 0 
350 3 49 6 0 
351 2 0 7 0 
352 2 1 7 0 
353 2 2 7 0 
354 2 3 7 0 
355 2 4 7 0 
356 2 5 7 0 
357 2 6 7 0 
358 2 7 7 0 
359 2 8 7 0 
360 2 9 7 0 
361 2 10 7 0 
362 2 11 7 0 
363 2 12 7 0 
364 2 13 7 0 
365 2 14 7 0 
366 2 15 7 0 
367 2 16 7 0 
368 2 17 7 0 
369 2 18 7 0 
370 2 19 7 0 
371 2 20 7 0 
372 2 21 7 0 
373 2 22 7 0 
374 2 23 7 0 
375 2 24 7 0 
376 2 25 7 0 
377 2 26 7 0 
378 2 27 7 0 
379 2 28 7 0 
380 2 29 7 0 
381 2 30 7 0 
382 2 31 7 0 
383 2 32 7 0 
384 2 33 7 0 
385 2 34 7 0 
386 2 35 7 0 
387 2 36 7 0 
388 2 37 7 0 
389 2 38 7 0 
390 2 39 7 0 
391 2 40 7 0 
392 2 41 7 0 
393 2 42 7 0 
394 2 43 7 0 
395 2 44 7 0 
396 2 45 7 0 
397 2 46 7 0 
398 2 47 7 0 
399 2 48 7 0 
400 3 49 7 0 
401 2 0 8 0 
402 2 1 8 0 
403 2 2 8 0 
404 2 3 8 0 
405 2 4 8 0 
406 2 5 8 0 
407 2 6 8 0 
408 2 7 8 0 
409 2 8 8 0 
410 2 9 8 0 
411 2 10 8 0 
412 2 11 8 0 
413 2 12 8 0 
414 2 13 8 0 
415 2 14 8 0 
416 2 15 8 0 
417 2 16 8 0 
418 2 17 8 0 
419 2 18 8 0 
420 2 19 8 0 
421 2 20 8 0 
422 2 21 8 0 
423 2 22 8 0 
424 2 23 8 0 
425 2 24 8 0 
426 2 25 8 0 
427 2 26 8 0 
428 2 27 8 0 
429 2 28 8 0 
430 2 29 8 0 
431 2 30 8 0 
432 2 31 8 0 
433 2 32 8 0 
434 2 33 8 0 
435 2 34 8 0 
436 2 35 8 0 
437 2 36 8 0 
438 2 37 8 0 
439 2 38 8 0 
440 2 39 8 0 
441 2 40 8 0 
442 2 41 8 0 
443 2 42 8 0 
444 2 43 8 0 
445 2 44 8 0 
446 2 45 8 0 
447 2 46 8 0 
448 2 47 8 0 
449 2 48 8 0 
450 3 49 8 0 
451 2 0 9 0 
452 2 1 9 0 
453 2 2 9 0 
454 2 3 9 0 
455 2 4 9 0 
456 2 5 9 0 
457 2 6 9 0 
458 2 7 9 0 
459 2 8 9 0 
460 2 9 9 0 
461 2 10 9 0 
462 2 11 9 0 
463 2 12 9 0 
464 2 13 9 0 
465 2 14 9 0 
466 2 15 9 0 
467 2 16 9 0 
468 2 17 9 0 
469 2 18 9 0 
470 2 19 9 0 
471 2 20 9 0 
472 2 21 9 0 
473 2 22 9 0 
474 2 23 9 0 
475 2 24 9 0 
476 2 25 9 0 
477 2 26 9 0 
478 2 27 9 0 
479 2 28 9 0 
480 2 29 9 0 
481 2 30 9 0 
482 2 31 9 0 
483 2 32 9 0 
484 2 33 9 0 
485 2 34 9 0 
486 2 35 9 0 
487 2 36 9 0 
488 2 37 9 0 
489 2 38 9 0 
490 2 39 9 0 
491 2 40 9 0 
492 2 41 9 0 
493 2 42 9 0 
494 2 43 9 0 
495 2 44 9 0 
496 2 45 9 0 
497 2 46 9 0 
498 2 47 9 0 
499 2 48 9 0 
500 3 49 9 0 
501 2 0 10 0 
502 2 1 10 0 
503 2 2 10 0 
504 2 3 10 0 
505 2 4 10 0 
506 2 5 10 0 
507 2 6 10 0 
508 2 7 10 0 
509 2 8 10 0 
510 2 9 10 0 
511 2 10 10 0 
512 2 11 10 0 
513 2 12 10 0 
514 2 13 10 0 
515 2 14 10 0 
516 2 15 10 0 
517 2 16 10 0 
518 2 17 10 0 
519 2 18 10 0 
520 2 19 10 0 
521 2 20 10 0 
522 2 21 10 0 
523 2 22 10 0 
524 2 23 10 0 
525 2 24 10 0 
526 2 25 10 0 
527 2 26 10 0 
528 2 27 10 0 
529 2 28 10 0 
530 2 29 10 0 
531 2 30 10 0 
532 2 31 10 0 
533 2 32 10 0 
534 2 33 10 0 
535 2 34 10 0 
536 2 35 10 0 
537 2 36 10 0 
538 2 37 10 0 
539 2 38 10 0 
540 2 39 10 0 
541 2 40 10 0 
542 2 41 10 0 
543 2 42 10 0 
544 2 43 10 0 
545 2 44 10 0 
546 2 45 10 0 
547 2 46 10 0 
548 2 47 10 0 
549 2 48 10 0 
550 3 49 10 0 
551 2 0 11 0 
552 2 1 11 0 
553 2 2 11 0 
554 2 3 11 0 
555 2 4 11 0 
556 2 5 11 0 
557 2 6 11 0 
558 2 7 11 0 
559 2 8 11 0 
560 2 9 11 0 
561 2 10 11 0 
562 2 11 11 0 
563 2 12 11 0 
564 2 13 11 0 
565 2 14 11 0 
566 2 15 11 0 
567 2 16 11 0 
568 2 17 11 0 
569 2 18 11 0 
570 2 19 11 0 
571 2 20 11 0 
572 2 21 11 0 
573 2 22 11 0 
574 2 23 11 0 
575 2 24 11 0 
576 2 25 11 0 
577 2 26 11 0 
578 2 27 11 0 
579 2 28 11 0 
580 2 29 11 0 
581 2 30 11 0 
582 2 31 11 0 
583 2 32 11 0 
584 2 33 11 0 
585 2 34 11 0 
586 2 35 11 0 
587 2 36 11 0 
588 2 37 11 0 
589 2 38 11 0 
590 2 39 11 0 
591 2 40 11 0 
592 2 41 11 0 
593 2 42 11 0 
594 2 43 11 0 
595 2 44 11 0 
596 2 45 11 0 
597 2 46 11 0 
598 2 47 11 0 
599 2 48 11 0 
600 3 49 11 0 
601 2 0 12 0 
602 2 1 12 0 
603 2 2 12 0 
604 2 3 12 0 
605 2 4 12 0 
606 2 5 12 0 
607 2 6 12 0 
608 2 7 12 0 
609 2 8 12 0 
610 2 9 12 0 
611 2 10 12 0 
612 2 11 12 0 
613 2 12 12 0 
614 2 13 12 0 
615 2 14 12 0 
616 2 15 12 0 
617 2 16 12 0 
618 2 17 12 0 
619 2 18 12 0 
620 2 19 12 0 
621 2 20 12 0 
622 2 21 12 0 
623 2 22 12 0 
624 2 23 12 0 
625 2 24 12 0 
626 2 25 12 0 
627 2 26 12 0 
628 2 27 12 0 
629 2 28 12 0 
630 2 29 12 0 
631 2 30 12 0 
632 2 31 12 0 
633 2 32 12 0 
634 2 33 12 0 
635 2 34 12 0 
636 2 35 12 0 
637 2 36 12 0 
638 2 37 12 0 
639 2 38 12 0 
640 2 39 12 0 
641 2 40 12 0 
642 2 41 12 0 
643 2 42 12 0 
644 2 43 12 0 
645 2 44 12 0 
646 2 45 12 0 
647 2 46 12 0 
648 2 47 12 0 
649 2 48 12 0 
650 3 49 12 0 
651 2 0 13 0 
652 2 1 13 0 
653 2 2 13 0 
654 2 3 13 0 
655 2 4 13 0 
656 2 5 13 0 
657 2 6 13 0 
658 2 7 13 0 
659 2 8 13 0 
660 2 9 13 0 
661 2 10 13 0 
662 2 11 13 0 
663 2 12 13 0 
664 2 13 13 0 
665 2 14 13 0 
666 2 15 13 0 
667 2 16 13 0 
668 2 17 13 0 
669 2 18 13 0 
670 2 19 13 0 
671 2 20 13 0 
672 2 21 13 0 
673 2 22 13 0 
674 2 23 13 0 
675 2 24 13 0 
676 2 25 13 0 
677 2 26 13 0 
678 2 27 13 0 
679 2 28 13 0 
680 2 29 13 0 
681 2 30 13 0 
682 2 31 13 0 
683 2 32 13 0 
684 2 33 13 0 
685 2 34 13 0 
686 2 35 13 0 
687 2 36 13 0 
688 2 37 13 0 
689 2 38 13 0 
690 2 39 13 0 
691 2 40 13 0 
692 2 41 13 0 
693 2 42 13 0 
694 2 43 13 0 
695 2 44 13 0 
696 2 45 13 0 
697 2 46 13 0 
698 2 47 13 0 
699 2 48 13 0 
700 3 49 13 0 
701 2 0 14 0 
702 2 1 14 0 
703 2 2 14 0 
704 2 3 14 0 
705 2 4 14 0 
706 2 5 14 0 
707 2 6 14 0 
708 2 7 14 0 
709 2 8 14 0 
710 2 9 14 0 
711 2 10 14 0 
712 2 11 14 0 
713 2 12 14 0 
714 2 13 14 0 
715 2 14 14 0 
716 2 15 14 0 
717 2 16 14 0 
718 2 17 14 0 
719 2 18 14 0 
720 2 19 14 0 
721 2 20 14 0 
722 2 21 14 0 
723 2 22 14 0 
724 2 23 14 0 
725 2 24 14 0 
726 2 25 14 0 
727 2 26 14 0 
728 2 27 14 0 
729 2 28 14 0 
730 2 29 14 0 
731 2 30 14 0 
732 2 31 14 0 
733 2 32 14 0 
734 2 33 14 0 
735 2 34 14 0 
736 2 35 14 0 
737 2 36 14 0 
738 2 37 14 0 
739 2 38 14 0 
740 2 39 14 0 
741 2 40 14 0 
742 2 41 14 0 
743 2 42 14 0 
744 2 43 14 0 
745 2 44 14 0 
746 2 45 14 0 
747 2 46 14 0 
748 2 47 14 0 
749 2 48 14 0 
750 3 49 14 0 
751 2 0 15 0 
752 2 1 15 0 
753 2 2 15 0 
754 2 3 15 0 
755 2 4 15 0 
756 2 5 15 0 
757 2 6 15 0 
758 2 7 15 0 
759 2 8 15 0 
760 2 9 15 0 
761 2 10 15 0 
762 2 11 15 0 
763 2 12 15 0 
764 2 13 15 0 
765 2 14 15 0 
766 2 15 15 0 
767 2 16 15 0 
768 2 17 15 0 
769 2 18 15 0 
770 2 19 15 0 
771 2 20 15 0 
772 2 21 15 0 
773 2 22 15 0 
774 2 23 15 0 
775 2 24 15 0 
776 2 25 15 0 
777 2 26 15 0 
778 2 27 15 0 
779 2 28 15 0 
780 2 29 15 0 
781 2 30 15 0 
782 2 31 15 0 
783 2 32 15 0 
784 2 33 15 0 
785 2 34 15 0 
786 2 35 15 0 
787 2 36 15 0 
788 2 37 15 0 
789 2 38 15 0 
790 2 39 15 0 
791 2 40 15 0 
792 2 41 15 0 
793 2 42 15 0 
794 2 43 15 0 
795 2 44 15 0 
796 2 45 15 0 
797 2 46 15 0 
798 2 47 15 0 
799 2 48 15 0 
800 3 49 15 0 
801 2 0 16 0 
802 2 1 16 0 
803 2 2 16 0 
804 2 3 16 0 
805 2 4 16 0 
806 2 5 16 0 
807 2 6 16 0 
808 2 7 16 0 
809 2 8 16 0 
810 2 9 16 0 
811 2 10 16 0 
812 2 11 16 0 
813 2 12 16 0 
814 2 13 16 0 
815 2 14 16 0 
816 2 15 16 0 
817 2 16 16 0 
818 2 17 16 0 
819 2 18 16 0 
820 2 19 16 0 
821 2 20 16 0 
822 2 21 16 0 
823 2 22 16 0 
824 2 23 16 0 
825 2 24 16 0 
826 2 25 16 0 
827 2 26 16 0 
828 2 27 16 0 
829 2 28 16 0 
830 2 29 16 0 
831 2 30 16 0 
832 2 31 16 0 
833 2 32 16 0 
834 2 33 16 0 
835 2 34 16 0 
836 2 35 16 0 
837 2 36 16 0 
838 2 37 16 0 
839 2 38 16 0 
840 2 39 16 0 
841 2 40 16 0 
842 2 41 16 0 
843 2 42 16 0 
844 2 43 16 0 
845 2 44 16 0 
846 2 45 16 0 
847 2 46 16 0 
848 2 47 16 0 
849 2 48 16 0 
850 3 49 16 0 
851 2 0 17 0 
852 2 1 17 0 
853 2 2 17 0 
854 2 3 17 0 
855 2 4 17 0 
856 2 5 17 0 
857 2 6 17 0 
858 2 7 17 0 
859 2 8 17 0 
860 2 9 17 0 
861 2 10 17 0 
862 2 11 17 0 
863 2 12 17 0 
864 2 13 17 0 
865 2 14 17 0 
866 2 15 17 0 
867 2 16 17 0 
868 2 17 17 0 
869 2 18 17 0 
870 2 19 17 0 
871 2 20 17 0 
872 2 21 17 0 
873 2 22 17 0 
874 2 23 17 0 
875 2 24 17 0 
876 2 25 17 0 
877 2 26 17 0 
878 2 27 17 0 
879 2 28 17 0 
880 2 29 17 0 
881 2 30 17 0 
882 2 31 17 0 
883 2 32 17 0 
884 2 33 17 0 
885 2 34 17 0 
886 2 35 17 0 
887 2 36 17 0 
888 2 37 17 0 
889 2 38 17 0 
890 2 39 17 0 
891 2 40 17 0 
892 2 41 17 0 
893 2 42 17 0 
894 2 43 17 0 
895 2 44 17 0 
896 2 45 17 0 
897 2 46 17 0 
898 2 47 17 0 
899 2 48 17 0 
900 3 49 17 0 
901 2 0 18 0 
902 2 1 18 0 
903 2 2 18 0 
904 2 3 18 0 
905 2 4 18 0 
906 2 5 18 0 
907 2 6 18 0 
908 2 7 18 0 
909 2 8 18 0 
910 2 9 18 0 
911 2 10 18 0 
912 2 11 18 0 
913 2 12 18 0 
914 2 13 18 0 
915 2 14 18 0 
916 2 15 18 0 
917 2 16 18 0 
918 2 17 18 0 
919 2 18 18 0 
920 2 19 18 0 
921 2 20 18 0 
922 2 21 18 0 
923 2 22 18 0 
924 2 23 18 0 
925 2 24 18 0 
926 2 25 18 0 
927 2 26 18 0 
928 2 27 18 0 
929 2 28 18 0 
930 2 29 18 0 
931 2 30 18 0 
932 2 31 18 0 
933 2 32 18 0 
934 2 33 18 0 
935 2 34 18 0 
936 2 35 18 0 
937 2 36 18 0 
938 2 37 18 0 
939 2 38 18 0 
940 2 39 18 0 
941 2 40 18 0 
942 2 41 18 0 
943 2 42 18 0 
944 2 43 18 0 
945 2 44 18 0 
946 2 45 18 0 
947 2 46 18 0 
948 2 47 18 0 
949 2 48 18 0 
950 3 49 18 0 
951 2 0 19 0 
952 2 1 19 0 
953 2 2 19 0 
954 2 3 19 0 
955 2 4 19 0 
956 2 5 19 0 
957 2 6 19 0 
958 2 7 19 0 
959 2 8 19 0 
960 2 9 19 0 
961 2 10 19 0 
962 2 11 19 0 
963 2 12 19 0 
964 2 13 19 0 
965 2 14 19 0 
966 2 15 19 0 
967 2 16 19 0 
968 2 17 19 0 
969 2 18 19 0 
970 2 19 19 0 
971 2 20 19 0 
972 2 21 19 0 
973 2 22 19 0 
974 2 23 19 0 
975 2 24 19 0 
976 2 25 19 0 
977 2 26 19 0 
978 2 27 19 0 
979 2 28 19 0 
980 2 29 19 0 
981 2 30 19 0 
982 2 31 19 0 
983 2 32 19 0 
984 2 33 19 0 
985 2 34 19 0 
986 2 35 19 0 
987 2 36 19 0 
988 2 37 19 0 
989 2 38 19 0 
990 2 39 19 0 
991 2 40 19 0 
992 2 41 19 0 
993 2 42 19 0 
994 2 43 19 0 
995 2 44 19 0 
996 2 45 19 0 
997 2 46 19 0 
998 2 47 19 0 
999 2 48 19 0 
1000 3 49 19 0 
1001 2 0 20 0 
1002 2 1 20 0 
1003 2 2 20 0 
1004 2 3 20 0 
1005 2 4 20 0 
1006 2 5 20 0 
1007 2 6 20 0 
1008 2 7 20 0 
1009 2 8 20 0 
1010 2 9 20 0 
1011 2 10 20 0 
1012 2 11 20 0 
1013 2 12 20 0 
1014 2 13 20 0 
1015 2 14 20 0 
1016 2 15 20 0 
1017 2 16 20 0 
1018 2 17 20 0 
1019 2 18 20 0 
1020 2 19 20 0 
1021 2 20 20 0 
1022 2 21 20 0 
1023 2 22 20 0 
1024 2 23 20 0 
1025 2 24 20 0 
1026 2 25 20 0 
1027 2 26 20 0 
1028 2 27 20 0 
1029 2 28 20 0 
1030 2 29 20 0 
1031 2 30 20 0 
1032 2 31 20 0 
1033 2 32 20 0 
1034 2 33 20 0 
1035 2 34 20 0 
1036 2 35 20 0 
1037 2 36 20 0 
1038 2 37 20 0 
1039 2 38 20 0 
1040 2 39 20 0 
1041 2 40 20 0 
1042 2 41 20 0 
1043 2 42 20 0 
1044 2 43 20 0 
1045 2 44 20 0 
1046 2 45 20 0 
1047 2 46 20 0 
1048 2 47 20 0 
1049 2 48 20 0 
1050 3 49 20 0 
1051 2 0 21 0 
1052 2 1 21 0 
1053 2 2 21 0 
1054 2 3 21 0 
1055 2 4 21 0 
1056 2 5 21 0 
1057 2 6 21 0 
1058 2 7 21 0 
1059 2 8 21 0 
1060 2 9 21 0 
1061 2 10 21 0 
1062 2 11 21 0 
1063 2 12 21 0 
1064 2 13 21 0 
1065 2 14 21 0 
1066 2 15 21 0 
1067 2 16 21 0 
1068 2 17 21 0 
1069 2 18 21 0 
1070 2 19 21 0 
1071 2 20 21 0 
1072 2 21 21 0 
1073 2 22 21 0 
1074 2 23 21 0 
1075 2 24 21 0 
1076 2 25 21 0 
1077 2 26 21 0 
1078 2 27 21 0 
1079 2 28 21 0 
1080 2 29 21 0 
1081 2 30 21 0 
1082 2 31 21 0 
1083 2 32 21 0 
1084 2 33 21 0 
1085 2 34 21 0 
1086 2 35 21 0 
1087 2 36 21 0 
1088 2 37 21 0 
1089 2 38 21 0 
1090 2 39 21 0 
1091 2 40 21 0 
1092 2 41 21 0 
1093 2 42 21 0 
1094 2 43 21 0 
1095 2 44 21 0 
1096 2 45 21 0 
1097 2 46 21 0 
1098 2 47 21 0 
1099 2 48 21 0 
1100 3 49 21 0 
1101 2 0 22 0 
1102 2 1 22 0 
1103 2 2 22 0 
1104 2 3 22 0 
1105 2 4 22 0 
1106 2 5 22 0 
1107 2 6 22 0 
1108 2 7 22 0 
1109 2 8 22 0 
1110 2 9 22 0 
1111 2 10 22 0 
1112 2 11 22 0 
1113 2 12 22 0 
1114 2 13 22 0 
1115 2 14 22 0 
1116 2 15 22 0 
1117 2 16 22 0 
1118 2 17 22 0 
1119 2 18 22 0 
1120 2 19 22 0 
1121 2 20 22 0 
1122 2 21 22 0 
1123 2 22 22 0 
1124 2 23 22 0 
1125 2 24 22 0 
1126 2 25 22 0 
1127 2 26 22 0 
1128 2 27 22 0 
1129 2 28 22 0 
1130 2 29 22 0 
1131 2 30 22 0 
1132 2 31 22 0 
1133 2 32 22 0 
1134 2 33 22 0 
1135 2 34 22 0 
1136 2 35 22 0 
1137 2 36 22 0 
1138 2 37 22 0 
1139 2 38 22 0 
1140 2 39 22 0 
1141 2 40 22 0 
1142 2 41 22 0 
1143 2 42 22 0 
1144 2 43 22 0 
1145 2 44 22 0 
1146 2 45 22 0 
1147 2 46 22 0 
1148 2 47 22 0 
1149 2 48 22 0 
1150 3 49 22 0 
1151 2 0 23 0 
1152 2 1 23 0 
1153 2 2 23 0 
1154 2 3 23 0 
1155 2 4 23 0 
1156 2 5 23 0 
1157 2 6 23 0 
1158 2 7 23 0 
1159 2 8 23 0 
1160 2 9 23 0 
1161 2 10 23 0 
1162 2 11 23 0 
1163 2 12 23 0 
1164 2 13 23 0 
1165 2 14 23 0 
1166 2 15 23 0 
1167 2 16 23 0 
1168 2 17 23 0 
1169 2 18 23 0 
1170 2 19 23 0 
1171 2 20 23 0 
1172 2 21 23 0 
1173 2 22 23 0 
1174 2 23 23 0 
1175 2 24 23 0 
1176 2 25 23 0 
1177 2 26 23 0 
1178 2 27 23 0 
1179 2 28 23 0 
1180 2 29 23 0 
1181 2 30 23 0 
1182 2 31 23 0 
1183 2 32 23 0 
1184 2 33 23 0 
1185 2 34 23 0 
1186 2 35 23 0 
1187 2 36 23 0 
1188 2 37 23 0 
1189 2 38 23 0 
1190 2 39 23 0 
1191 2 40 23 0 
1192 2 41 23 0 
1193 2 42 23 0 
1194 2 43 23 0 
1195 2 44 23 0 
1196 2 45 23 0 
1197 2 46 23 0 
1198 2 47 23 0 
1199 2 48 23 0 
1200 3 49 23 0 
1201 2 0 24 0 
1202 2 1 24 0 
1203 2 2 24 0 
1204 2 3 24 0 
1205 2 4 24 0 
1206 2 5 24 0 
1207 2 6 24 0 
1208 2 7 24 0 
1209 2 8 24 0 
1210 2 9 24 0 
1211 2 10 24 0 
1212 2 11 24 0 
1213 2 12 24 0 
1214 2 13 24 0 
1215 2 14 24 0 
1216 2 15 24 0 
1217 2 16 24 0 
1218 2 17 24 0 
1219 2 18 24 0 
1220 2 19 24 0 
1221 2 20 24 0 
1222 2 21 24 0 
1223 2 22 24 0 
1224 2 23 24 0 
1225 2 24 24 0 
1226 2 25 24 0 
1227 2 26 24 0 
1228 2 27 24 0 
1229 2 28 24 0 
1230 2 29 24 0 
1231 2 30 24 0 
1232 2 31 24 0 
1233 2 32 24 0 
1234 2 33 24 0 
1235 2 34 24 0 
1236 2 35 24 0 
1237 2 36 24 0 
1238 2 37 24 0 
1239 2 38 24 0 
1240 2 39 24 0 
1241 2 40 24 0 
1242 2 41 24 0 
1243 2 42 24 0 
1244 2 43 24 0 
1245 2 44 24 0 
1246 2 45 24 0 
1247 2 46 24 0 
1248 2 47 24 0 
1249 2 48 24 0 
1250 3 49 24 0 
1251 2 0 25 0 
1252 2 1 25 0 
1253 2 2 25 0 
1254 2 3 25 0 
1255 2 4 25 0 
1256 2 5 25 0 
1257 2 6 25 0 
1258 2 7 25 0 
1259 2 8 25 0 
1260 2 9 25 0 
1261 2 10 25 0 
1262 2 11 25 0 
1263 2 12 25 0 
1264 2 13 25 0 
1265 2 14 25 0 
1266 2 15 25 0 
1267 2 16 25 0 
1268 2 17 25 0 
1269 2 18 25 0 
1270 2 19 25 0 
1271 2 20 25 0 
1272 2 21 25 0 
1273 2 22 25 0 
1274 2 23 25 0 
1275 2 24 25 0 
1276 2 25 25 0 
1277 2 26 25 0 
1278 2 27 25 0 
1279 2 28 25 0 
1280 2 29 25 0 
1281 2 30 25 0 
1282 2 31 25 0 
1283 2 32 25 0 
1284 2 33 25 0 
1285 2 34 25 0 
1286 2 35 25 0 
1287 2 36 25 0 
1288 2 37 25 0 
1289 2 38 25 0 
1290 2 39 25 0 
1291 2 40 25 0 
1292 2 41 25 0 
1293 2 42 25 0 
1294 2 43 25 0 
1295 2 44 25 0 
1296 2 45 25 0 
1297 2 46 25 0 
1298 2 47 25 0 
1299 2 48 25 0 
1300 3 49 25 0 
1301 2 0 26 0 
1302 2 1 26 0 
1303 2 2 26 0 
1304 2 3 26 0 
1305 2 4 26 0 
1306 2 5 26 0 
1307 2 6 26 0 
1308 2 7 26 0 
1309 2 8 26 0 
1310 2 9 26 0 
1311 2 10 26 0 
1312 2 11 26 0 
1313 2 12 26 0 
1314 2 13 26 0 
1315 2 14 26 0 
1316 2 15 26 0 
1317 2 16 26 0 
1318 2 17 26 0 
1319 2 18 26 0 
1320 2 19 26 0 
1321 2 20 26 0 
1322 2 21 26 0 
1323 2 22 26 0 
1324 2 23 26 0 
1325 2 24 26 0 
1326 2 25 26 0 
1327 2 26 26 0 
1328 2 27 26 0 
1329 2 28 26 0 
1330 2 29 26 0 
1331 2 30 26 0 
1332 2 31 26 0 
1333 2 32 26 0 
1334 2 33 26 0 
1335 2 34 26 0 
1336 2 35 26 0 
1337 2 36 26 0 
1338 2 37 26 0 
1339 2 38 26 0 
1340 2 39 26 0 
1341 2 40 26 0 
1342 2 41 26 0 
1343 2 42 26 0 
1344 2 43 26 0 
1345 2 44 26 0 
1346 2 45 26 0 
1347 2 46 26 0 
1348 2 47 26 0 
1349 2 48 26 0 
1350 3 49 26 0 
1351 2 0 27 0 
1352 2 1 27 0 
1353 2 2 27 0 
1354 2 3 27 0 
1355 2 4 27 0 
1356 2 5 27 0 
1357 2 6 27 0 
1358 2 7 27 0 
1359 2 8 27 0 
1360 2 9 27 0 
1361 2 10 27 0 
1362 2 11 27 0 
1363 2 12 27 0 
1364 2 13 27 0 
1365 2 14 27 0 
1366 2 15 27 0 
1367 2 16 27 0 
1368 2 17 27 0 
1369 2 18 27 0 
1370 2 19 27 0 
1371 2 20 27 0 
1372 2 21 27 0 
1373 2 22 27 0 
1374 2 23 27 0 
1375 2 24 27 0 
1376 2 25 27 0 
1377 2 26 27 0 
1378 2 27 27 0 
1379 2 28 27 0 
1380 2 29 27 0 
1381 2 30 27 0 
1382 2 31 27 0 
1383 2 32 27 0 
1384 2 33 27 0 
1385 2 34 27 0 
1386 2 35 27 0 
1387 2 36 27 0 
1388 2 37 27 0 
1389 2 38 27 0 
1390 2 39 27 0 
1391 2 40 27 0 
1392 2 41 27 0 
1393 2 42 27 0 
1394 2 43 27 0 
1395 2 44 27 0 
1396 2 45 27 0 
1397 2 46 27 0 
1398 2 47 27 0 
1399 2 48 27 0 
1400 3 49 27 0 
1401 2 0 28 0 
1402 2 1 28 0 
1403 2 2 28 0 
1404 2 3 28 0 
1405 2 4 28 0 
1406 2 5 28 0 
1407 2 6 28 0 
1408 2 7 28 0 
1409 2 8 28 0 
1410 2 9 28 0 
1411 2 10 28 0 
1412 2 11 28 0 
1413 2 12 28 0 
1414 2 13 28 0 
1415 2 14 28 0 
1416 2 15 28 0 
1417 2 16 28 0 
1418 2 17 28 0 
1419 2 18 28 0 
1420 2 19 28 0 
1421 2 20 28 0 
1422 2 21 28 0 
1423 2 22 28 0 
1424 2 23 28 0 
1425 2 24 28 0 
1426 2 25 28 0 
1427 2 26 28 0 
1428 2 27 28 0 
1429 2 28 28 0 
1430 2 29 28 0 
1431 2 30 28 0 
1432 2 31 28 0 
1433 2 32 28 0 
1434 2 33 28 0 
1435 2 34 28 0 
1436 2 35 28 0 
1437 2 36 28 0 
1438 2 37 28 0 
1439 2 38 28 0 
1440 2 39 28 0 
1441 2 40 28 0 
1442 2 41 28 0 
1443 2 42 28 0 
1444 2 43 28 0 
1445 2 44 28 0 
1446 2 45 28 0 
1447 2 46 28 0 
1448 2 47 28 0 
1449 2 48 28 0 
1450 3 49 28 0 
1451 2 0 29 0 
1452 2 1 29 0 
1453 2 2 29 0 
1454 2 3 29 0 
1455 2 4 29 0 
1456 2 5 29 0 
1457 2 6 29 0 
1458 2 7 29 0 
1459 2 8 29 0 
1460 2 9 29 0 
1461 2 10 29 0 
1462 2 11 29 0 
1463 2 12 29 0 
1464 2 13 29 0 
1465 2 14 29 0 
1466 2 15 29 0 
1467 2 16 29 0 
1468 2 17 29 0 
1469 2 18 29 0 
1470 2 19 29 0 
1471 2 20 29 0 
1472 2 21 29 0 
1473 2 22 29 0 
1474 2 23 29 0 
1475 2 24 29 0 
1476 2 25 29 0 
1477 2 26 29 0 
1478 2 27 29 0 
1479 2 28 29 0 
1480 2 29 29 0 
1481 2 30 29 0 
1482 2 31 29 0 
1483 2 32 29 0 
1484 2 33 29 0 
1485 2 34 29 0 
1486 2 35 29 0 
1487 2 36 29 0 
1488 2 37 29 0 
1489 2 38 29 0 
1490 2 39 29 0 
1491 2 40 29 0 
1492 2 41 29 0 
1493 2 42 29 0 
1494 2 43 29 0 
1495 2 44 29 0 
1496 2 45 29 0 
1497 2 46 29 0 
1498 2 47 29 0 
1499 2 48 29 0 
1500 3 49 29 0 
1501 2 0 30 0 
1502 2 1 30 0 
1503 2 2 30 0 
1504 2 3 30 0 
1505 2 4 30 0 
1506 2 5 30 0 
1507 2 6 30 0 
1508 2 7 30 0 
1509 2 8 30 0 
1510 2 9 30 0 
1511 2 10 30 0 
1512 2 11 30 0 
1513 2 12 30 0 
1514 2 13 30 0 
1515 2 14 30 0 
1516 2 15 30 0 
1517 2 16 30 0 
1518 2 17 30 0 
1519 2 18 30 0 
1520 2 19 30 0 
1521 2 20 30 0 
1522 2 21 30 0 
1523 2 22 30 0 
1524 2 23 30 0 
1525 2 24 30 0 
1526 2 25 30 0 
1527 2 26 30 0 
1528 2 27 30 0 
1529 2 28 30 0 
1530 2 29 30 0 
1531 2 30 30 0 
1532 2 31 30 0 
1533 2 32 30 0 
1534 2 33 30 0 
1535 2 34 30 0 
1536 2 35 30 0 
1537 2 36 30 0 
1538 2 37 30 0 
1539 2 38 30 0 
1540 2 39 30 0 
1541 2 40 30 0 
1542 2 41 30 0 
1543 2 42 30 0 
1544 2 43 30 0 
1545 2 44 30 0 
1546 2 45 30 0 
1547 2 46 30 0 
1548 2 47 30 0 
1549 2 48 30 0 
1550 3 49 30 0 
1551 2 0 31 0 
1552 2 1 31 0 
1553 2 2 31 0 
1554 2 3 31 0 
1555 2 4 31 0 
1556 2 5 31 0 
1557 2 6 31 0 
1558 2 7 31 0 
1559 2 8 31 0 
1560 2 9 31 0 
1561 2 10 31 0 
1562 2 11 31 0 
1563 2 12 31 0 
1564 2 13 31 0 
1565 2 14 31 0 
1566 2 15 31 0 
1567 2 16 31 0 
1568 2 17 31 0 
1569 2 18 31 0 
1570 2 19 31 0 
1571 2 20 31 0 
1572 2 21 31 0 
1573 2 22 31 0 
1574 2 23 31 0 
1575 2 24 31 0 
1576 2 25 31 0 
1577 2 26 31 0 
1578 2 27 31 0 
1579 2 28 31 0 
1580 2 29 31 0 
1581 2 30 31 0 
1582 2 31 31 0 
1583 2 32 31 0 
1584 2 33 31 0 
1585 2 34 31 0 
1586 2 35 31 0 
1587 2 36 31 0 
1588 2 37 31 0 
1589 2 38 31 0 
1590 2 39 31 0 
1591 2 40 31 0 
1592 2 41 31 0 
1593 2 42 31 0 
1594 2 43 31 0 
1595 2 44 31 0 
1596 2 45 31 0 
1597 2 46 31 0 
1598 2 47 31 0 
1599 2 48 31 0 
1600 3 49 31 0 
1601 2 0 32 0 
1602 2 1 32 0 
1603 2 2 32 0 
1604 2 3 32 0 
1605 2 4 32 0 
1606 2 5 32 0 
1607 2 6 32 0 
1608 2 7 32 0 
1609 2 8 32 0 
1610 2 9 32 0 
1611 2 10 32 0 
1612 2 11 32 0 
1613 2 12 32 0 
1614 2 13 32 0 
1615 2 14 32 0 
1616 2 15 32 0 
1617 2 16 32 0 
1618 2 17 32 0 
1619 2 18 32 0 
1620 2 19 32 0 
1621 2 20 32 0 
1622 2 21 32 0 
1623 2 22 32 0 
1624 2 23 32 0 
1625 2 24 32 0 
1626 2 25 32 0 
1627 2 26 32 0 
1628 2 27 32 0 
1629 2 28 32 0 
1630 2 29 32 0 
1631 2 30 32 0 
1632 2 31 32 0 
1633 2 32 32 0 
1634 2 33 32 0 
1635 2 34 32 0 
1636 2 35 32 0 
1637 2 36 32 0 
1638 2 37 32 0 
1639 2 38 32 0 
1640 2 39 32 0 
1641 2 40 32 0 
1642 2 41 32 0 
1643 2 42 32 0 
1644 2 43 32 0 
1645 2 44 32 0 
1646 2 45 32 0 
1647 2 46 32 0 
1648 2 47 32 0 
1649 2 48 32 0 
1650 3 49 32 0 
1651 2 0 33 0 
1652 2 1 33 0 
1653 2 2 33 0 
1654 2 3 33 0 
1655 2 4 33 0 
1656 2 5 33 0 
1657 2 6 33 0 
1658 2 7 33 0 
1659 2 8 33 0 
1660 2 9 33 0 
1661 2 10 33 0 
1662 2 11 33 0 
1663 2 12 33 0 
1664 2 13 33 0 
1665 2 14 33 0 
1666 2 15 33 0 
1667 2 16 33 0 
1668 2 17 33 0 
1669 2 18 33 0 
1670 2 19 33 0 
1671 2 20 33 0 
1672 2 21 33 0 
1673 2 22 33 0 
1674 2 23 33 0 
1675 2 24 33 0 
1676 2 25 33 0 
1677 2 26 33 0 
1678 2 27 33 0 
1679 2 28 33 0 
1680 2 29 33 0 
1681 2 30 33 0 
1682 2 31 33 0 
1683 2 32 33 0 
1684 2 33 33 0 
1685 2 34 33 0 
1686 2 35 33 0 
1687 2 36 33 0 
1688 2 37 33 0 
1689 2 38 33 0 
1690 2 39 33 0 
1691 2 40 33 0 
1692 2 41 33 0 
1693 2 42 33 0 
1694 2 43 33 0 
1695 2 44 33 0 
1696 2 45 33 0 
1697 2 46 33 0 
1698 2 47 33 0 
1699 2 48 33 0 
1700 3 49 33 0 
1701 2 0 34 0 
1702 2 1 34 0 
1703 2 2 34 0 
1704 2 3 34 0 
1705 2 4 34 0 
1706 2 5 34 0 
1707 2 6 34 0 
1708 2 7 34 0 
1709 2 8 34 0 
1710 2 9 34 0 
1711 2 10 34 0 
1712 2 11 34 0 
1713 2 12 34 0 
1714 2 13 34 0 
1715 2 14 34 0 
1716 2 15 34 0 
1717 2 16 34 0 
1718 2 17 34 0 
1719 2 18 34 0 
1720 2 19 34 0 
1721 2 20 34 0 
1722 2 21 34 0 
1723 2 22 34 0 
1724 2 23 34 0 
1725 2 24 34 0 
1726 2 25 34 0 
1727 2 26 34 0 
1728 2 27 34 0 
1729 2 28 34 0 
1730 2 29 34 0 
1731 2 30 34 0 
1732 2 31 34 0 
1733 2 32 34 0 
1734 2 33 34 0 
1735 2 34 34 0 
1736 2 35 34 0 
1737 2 36 34 0 
1738 2 37 34 0 
1739 2 38 34 0 
1740 2 39 34 0 
1741 2 40 34 0 
1742 2 41 34 0 
1743 2 42 34 0 
1744 2 43 34 0 
1745 2 44 34 0 
1746 2 45 34 0 
1747 2 46 34 0 
1748 2 47 34 0 
1749 2 48 34 0 
1750 3 49 34 0 
1751 2 0 35 0 
1752 2 1 35 0 
1753 2 2 35 0 
1754 2 3 35 0 
1755 2 4 35 0 
1756 2 5 35 0 
1757 2 6 35 0 
1758 2 7 35 0 
1759 2 8 35 0 
1760 2 9 35 0 
1761 2 10 35 0 
1762 2 11 35 0 
1763 2 12 35 0 
1764 2 13 35 0 
1765 2 14 35 0 
1766 2 15 35 0 
1767 2 16 35 0 
1768 2 17 35 0 
1769 2 18 35 0 
1770 2 19 35 0 
1771 2 20 35 0 
1772 2 21 35 0 
1773 2 22 35 0 
1774 2 23 35 0 
1775 2 24 35 0 
1776 2 25 35 0 
1777 2 26 35 0 
1778 2 27 35 0 
1779 2 28 35 0 
1780 2 29 35 0 
1781 2 30 35 0 
1782 2 31 35 0 
1783 2 32 35 0 
1784 2 33 35 0 
1785 2 34 35 0 
1786 2 35 35 0 
1787 2 36 35 0 
1788 2 37 35 0 
1789 2 38 35 0 
1790 2 39 35 0 
1791 2 40 35 0 
1792 2 41 35 0 
1793 2 42 35 0 
1794 2 43 35 0 
1795 2 44 35 0 
1796 2 45 35 0 
1797 2 46 35 0 
1798 2 47 35 0 
1799 2 48 35 0 
1800 3 49 35 0 
1801 2 0 36 0 
1802 2 1 36 0 
1803 2 2 36 0 
1804 2 3 36 0 
1805 2 4 36 0 
1806 2 5 36 0 
1807 2 6 36 0 
1808 2 7 36 0 
1809 2 8 36 0 
1810 2 9 36 0 
1811 2 10 36 0 
1812 2 11 36 0 
1813 2 12 36 0 
1814 2 13 36 0 
1815 2 14 36 0 
1816 2 15 36 0 
1817 2 16 36 0 
1818 2 17 36 0 
1819 2 18 36 0 
1820 2 19 36 0 
1821 2 20 36 0 
1822 2 21 36 0 
1823 2 22 36 0 
1824 2 23 36 0 
1825 2 24 36 0 
1826 2 25 36 0 
1827 2 26 36 0 
1828 2 27 36 0 
1829 2 28 36 0 
1830 2 29 36 0 
1831 2 30 36 0 
1832 2 31 36 0 
1833 2 32 36 0 
1834 2 33 36 0 
1835 2 34 36 0 
1836 2 35 36 0 
1837 2 36 36 0 
1838 2 37 36 0 
1839 2 38 36 0 
1840 2 39 36 0 
1841 2 40 36 0 
1842 2 41 36 0 
1843 2 42 36 0 
1844 2 43 36 0 
1845 2 44 36 0 
1846 2 45 36 0 
1847 2 46 36 0 
1848 2 47 36 0 
1849 2 48 36 0 
1850 3 49 36 0 
1851 2 0 37 0 
1852 2 1 37 0 
1853 2 2 37 0 
1854 2 3 37 0 
1855 2 4 37 0 
1856 2 5 37 0 
1857 2 6 37 0 
1858 2 7 37 0 
1859 2 8 37 0 
1860 2 9 37 0 
1861 2 10 37 0 
1862 2 11 37 0 
1863 2 12 37 0 
1864 2 13 37 0 
1865 2 14 37 0 
1866 2 15 37 0 
1867 2 16 37 0 
1868 2 17 37 0 
1869 2 18 37 0 
1870 2 19 37 0 
1871 2 20 37 0 
1872 2 21 37 0 
1873 2 22 37 0 
1874 2 23 37 0 
1875 2 24 37 0 
1876 2 25 37 0 
1877 2 26 37 0 
1878 2 27 37 0 
1879 2 28 37 0 
1880 2 29 37 0 
1881 2 30 37 0 
1882 2 31 37 0 
1883 2 32 37 0 
1884 2 33 37 0 
1885 2 34 37 0 
1886 2 35 37 0 
1887 2 36 37 0 
1888 2 37 37 0 
1889 2 38 37 0 
1890 2 39 37 0 
1891 2 40 37 0 
1892 2 41 37 0 
1893 2 42 37 0 
1894 2 43 37 0 
1895 2 44 37 0 
1896 2 45 37 0 
1897 2 46 37 0 
1898 2 47 37 0 
1899 2 48 37 0 
1900 3 49 37 0 
1901 2 0 38 0 
1902 2 1 38 0 
1903 2 2 38 0 
1904 2 3 38 0 
1905 2 4 38 0 
1906 2 5 38 0 
1907 2 6 38 0 
1908 2 7 38 0 
1909 2 8 38 0 
1910 2 9 38 0 
1911 2 10 38 0 
1912 2 11 38 0 
1913 2 12 38 0 
1914 2 13 38 0 
1915 2 14 38 0 
1916 2 15 38 0 
1917 2 16 38 0 
1918 2 17 38 0 
1919 2 18 38 0 
1920 2 19 38 0 
1921 2 20 38 0 
1922 2 21 38 0 
1923 2 22 38 0 
1924 2 23 38 0 
1925 2 24 38 0 
1926 2 25 38 0 
1927 2 26 38 0 
1928 2 27 38 0 
1929 2 28 38 0 
1930 2 29 38 0 
1931 2 30 38 0 
1932 2 31 38 0 
1933 2 32 38 0 
1934 2 33 38 0 
1935 2 34 38 0 
1936 2 35 38 0 
1937 2 36 38 0 
1938 2 37 38 0 
1939 2 38 38 0 
1940 2 39 38 0 
1941 2 40 38 0 
1942 2 41 38 0 
1943 2 42 38 0 
1944 2 43 38 0 
1945 2 44 38 0 
1946 2 45 38 0 
1947 2 46 38 0 
1948 2 47 38 0 
1949 2 48 38 0 
1950 3 49 38 0 
1951 2 0 39 0 
1952 2 1 39 0 
1953 2 2 39 0 
1954 2 3 39 0 
1955 2 4 39 0 
1956 2 5 39 0 
1957 2 6 39 0 
1958 2 7 39 0 
1959 2 8 39 0 
1960 2 9 39 0 
1961 2 10 39 0 
1962 2 11 39 0 
1963 2 12 39 0 
1964 2 13 39 0 
1965 2 14 39 0 
1966 2 15 39 0 
1967 2 16 39 0 
1968 2 17 39 0 
1969 2 18 39 0 
1970 2 19 39 0 
1971 2 20 39 0 
1972 2 21 39 0 
1973 2 22 39 0 
1974 2 23 39 0 
1975 2 24 39 0 
1976 2 25 39 0 
1977 2 26 39 0 
1978 2 27 39 0 
1979 2 28 39 0 
1980 2 29 39 0 
1981 2 30 39 0 
1982 2 31 39 0 
1983 2 32 39 0 
1984 2 33 39 0 
1985 2 34 39 0 
1986 2 35 39 0 
1987 2 36 39 0 
1988 2 37 39 0 
1989 2 38 39 0 
1990 2 39 39 0 
1991 2 40 39 0 
1992 2 41 39 0 
1993 2 42 39 0 